Name,Compound ID,InChIKey,SMILES,logS,logP,MW
,C8588,YDLSUFFXJYEVHW-UHFFFAOYSA-N,O=C1CCN(CC1)CCc1ccccc1,-0.808418251,1.8319,203.28
,C2588,YDNFAUYKNHHSDV-UHFFFAOYSA-N,Fc1ccc(cc1)C(=O)CCCN1CCC(CC1)n1c(=S)[nH]c2c1cccc2,-5.679018161,5.0759,397.509
,C9670,YDOWCNBJMHAORA-UHFFFAOYSA-N,O=C1CCCCCCCN1,0.632881438,1.7856,141.211
,C3704,YDQBNGBTJRHPQO-UHFFFAOYSA-N,Cc1ccc2c(c1)nc1c(c2N)cccc1,-4.348732582,3.8598,208.258
,C2332,YDQJFPLRVSPPGE-UHFFFAOYSA-N,COc1cc2c(cc1OC)CCN(C2CCc1ccc(cc1)Cl)CC[NH+](CC)CC.[Br-],-6.143361905,0.7558,511.923
,C7667,YDSDEBIZUNNPOB-UHFFFAOYSA-N,CCOc1c(OC)cccc1C(=O)OCC[NH+](C)C.[Cl-],-1.616276113,-2.6008,303.782
,C5684,YDSIWJMQLZGKPN-UHFFFAOYSA-N,CCCCCC(=O)c1ccc(cc1)N,-2.919928104,3.613,191.269
,C3110,YDTFRJLNMPSCFM-YDALLXLXSA-M,CCC(=O)N(C1(CCN(CC1)CCc1ccccc1)C(=O)OC)c1ccccc1,-4.971781436,3.6178,394.507
,C5156,YDTRHUZOOVJOAN-UHFFFAOYSA-N,CCOC(=O)N1CSc2c1cccc2,-3.275369468,2.7777,209.265
,C4505,YDUGWJMUYOGFLN-UHFFFAOYSA-N,[O-]C(=O)[C@H](Cc1cc(I)c(c(c1)I)Oc1cc(I)c(c(c1)I)O)N.[Na+],-3.726377253,3.9229,798.852
,C6735,YDULHULNQBBPCX-UHFFFAOYSA-N,Oc1sc(C)c(c(=O)c1c1ccccc1)C(=O)O,-2.254410647,2.4875,262.281
,C7111,YDUVNCVFHOFCBV-UHFFFAOYSA-N,FCCCCC#C,-2.031174327,1.7594,100.134
,C3416,YDVMQFMAVCFLQU-UHFFFAOYSA-N,Brc1ccc(nc1)SCCCCCCN1CSCC1.Cl,-4.614257945,5.2428,397.825
,C2577,YDVWJKCVMAVQFZ-UHFFFAOYSA-N,O=C(N1c2ccccc2CCc2c1cccc2)C[NH2+]C(C)(C)C.[Cl-],-5.693816365,-0.1192,344.878
,C8926,YEAICDDXRUOCKJ-UHFFFAOYSA-N,[O-][N+](=O)c1nccn1CCO,-0.33651778,0.3068,157.127
,C7624,YECBIJXISLIIDS-UHFFFAOYSA-N,OS(=O)(=O)SCCNC1CCCCCCC1,-1.642547375,3.6966,267.409
,C517,YECIFGHRMFEPJK-UHFFFAOYSA-N,Nc1ccc(cc1)S(=O)(=O)Nc1cnccn1,-3.7,2.5946,250.277
,C5452,YECKGFONHTVTNM-UHFFFAOYSA-L,COc1ccc(cc1)CN(c1ccccn1)CCN(C)C,-3.066274174,2.6584,285.384
,C6674,YEJIOOCWBINOSK-UHFFFAOYSA-N,CCN(CC(=O)Nc1c(C)cccc1C)CC.Cl.O,-2.293303929,3.3944,288.813
,C9216,YEJRWHAVMIAJKC-UHFFFAOYSA-N,[S-]C(=S)NCCCCCCNC(=S)[S-].[Na+].[Na+],0.163253122,2.1714,312.45
,C5716,YEKMWXFHPZBZLR-UHFFFAOYSA-N,FCCCCCCS,-2.903817459,2.4461,136.231
,C1652,YEKQSSHBERGOJK-UHFFFAOYSA-N,O=C1CCCO1,1.0700001,0.3234,86.0892
,C5000,YEOTYALSMRNXLJ-UHFFFAOYSA-N,ClCCC1NC(=O)c2c(O1)cccc2,-3.387138325,2.0926,211.645
,C8106,YEOYYWCXWUDVCX-UHFFFAOYSA-N,CNC(=O)OCc1cccc(n1)COC(=O)NC,-1.262740993,1.5754,253.255
,C5698,YESHDEHJHNPWDU-UHFFFAOYSA-N,COC(C(=O)N1CCN(CC1)c1nc(N)c2c(n1)cc(c(c2)OC)OC)C,-2.910732683,1.4968,375.422
,C7428,YEZNLOUZAIOMLT-UHFFFAOYSA-N,NC(=O)c1ccccc1I,-1.796601408,2.0904,247.033
,C4102,YFAJFUPAVXENCH-UHFFFAOYSA-L,CC[NH+](CCN1C(=O)C(C)Oc2c1ccc(c2Cl)Cl)CC.[Cl-],-4.043043503,-0.899,367.698
,C2683,YFBDGNHKARUTDC-UHFFFAOYSA-M,OC(=O)c1ccccc1Nc1cccc(c1C)Cl,-5.524438673,4.1632,261.704
,C9316,YFBIGPNGRMQOOT-UHFFFAOYSA-N,CC[N+](CCCc1ccc(cc1)[N+](CC)(C)C)(C)C.[I-].[I-],0.28544729,-2.6897,518.258
,C9696,YFDSDPIBEUFTMI-UHFFFAOYSA-N,CCCC[N+](CC)(CC)CC.[OH-],0.653805563,2.4862,175.312
,C3592,YFEPHJVWLFGWKH-CQSZACIVSA-N,CCCc1nc(NC(C)C)nc(n1)NC(C)C,-4.45059507,2.6107,237.345
,C8477,YFESJHPTNWYOCO-UHFFFAOYSA-N,OCC(Br)(Br)Br,-0.919934433,1.8172,282.757
,C2562,YFGYUFNIOHWBOB-UHFFFAOYSA-N,COc1cc2c(cc1OC)c1C[C@H]3CCCN3Cc1c1c2c(OC)c(OC)cc1,-5.719691027,4.4858,393.475
,C8356,YFHLAAFULVPHPB-UHFFFAOYSA-N,OCC(CCl)(CCl)CO,-1.027810418,0.435,173.038
,C1089,YFJWYKLLZFEYFL-UHFFFAOYSA-N,CN(C(=O)Oc1nc(nc(c1C)C)N(C)C)C,-1.95,1.2198,238.286
,C7188,YFMPSMITLLBENU-UHFFFAOYSA-N,Clc1ccc(nc1)OCCCN1CSCC1.Cl,-1.970461606,3.2501,295.229
,C3847,YFNUPHWNTLVIMV-MSOLQXFVSA-N,FC1=C(C)C(F)(F)C(C(C1(F)F)(F)F)(F)F,-4.210369022,3.7847,258.084
,C9882,YFQMJRKDDFCXOC-UHFFFAOYSA-N,NCc1ccc(c(c1)O)O,0.856504274,1.2568,139.152
,C1124,YFRZROIZOHWZNR-UHFFFAOYSA-N,COc1ccc2c(c1O)[C@@]13CCN([C@@]3(CC2)C=CC(=O)C1)C,-1.87,2.126,299.364
,C4854,YFSZIWUTVIASLF-UHFFFAOYSA-L,O=C(C(C)C)Nc1nc2c(o1)ccc(c2)Cl,-3.499852719,3.1487,238.67
,C4516,YFTHZRPMJXBUME-UHFFFAOYSA-N,Brc1ccc2c(c1)c(nc(=O)[nH]2)c1ccccc1,-3.710652893,3.3526,301.138
,C9302,YFTRBASNPFHPAJ-UHFFFAOYSA-N,CC[N+](CCCCc1ccc(cc1)[N+](CC)(C)C)(C)C.[I-].[I-],0.273849221,-2.2996,532.285
,C978,YFTWHEBLORWGNI-UHFFFAOYSA-N,CCCN(CCC)CCC,-2.28,2.5184,143.27
,C8712,YFUWSMRQAKOQQG-UHFFFAOYSA-N,OCC(COc1ccccc1O)O,-0.650371166,0.1242,184.189
,C6293,YFZNSPMAOIVQRP-YVKGXWRCSA-N,Nc1nc(Sc2n(C)cnc2[N+](=O)[O-])c2c(n1)nc[nH]2,-2.538783787,1.8324,292.277
,C6793,YGBYMILEURDRKI-UHFFFAOYSA-N,N/C(=N\Cc1ccc(s1)C)/CSS(=O)(=O)O,-2.219852582,3.2308,280.387
,C9334,YGCFFGRUZJNPDR-UHFFFAOYSA-N,OCc1cn(c(=O)[nH]c1=O)[C@@H]1O[C@@H]([C@H]([C@H]1O)O)[C@@H](C(=O)O)NC(=O)[C@H]([C@@H]([C@H](COC(=O)N)O)O)N,0.294641834,-4.8466,507.406
,C7547,YGCODSQDUUUKIV-UHFFFAOYSA-N,CCN(CCNCC(COc1ccc(cc1)C(=O)CC)O)CC,-1.708431689,2.3413,322.442
,C6250,YGCOKJWKWLYHTG-UHFFFAOYSA-N,O=C1NC(=O)C2(C(=O)N1)CCC[Si](C2)(C)C,-2.565237466,1.4986,240.331
,C6307,YGCXXYLQISERCR-UHFFFAOYSA-N,Clc1ccc2c(c1)nc(o2)N,-2.532113123,2.6446,168.58
,C9560,YGGWVLPESBDDGW-UHFFFAOYSA-N,OCN(c1nc(nc(n1)N(CO)CO)N(CO)CO)CO,0.513882794,-4.0104,306.276
,C3876,YGIILZUAYFBBMZ-UHFFFAOYSA-N,BrCc1onc(c1)c1ccc(cc1)Cl,-4.189895274,3.8899,272.526
,C2179,YGIPNGHJLVOBQO-UHFFFAOYSA-N,CN(CCCN1c2cc(Cl)ccc2Sc2c1cc(O)c(c2)O)C.Cl,-6.538850779,5.1726,387.324
,C2504,YGLMVCVJLXREAK-OOCWMUITSA-N,ClCCSCC[NH+](c1ccccc1)CCSCCCl.[Cl-],-5.824844844,0.151,374.82
,C9245,YGNXYFLJZILPEK-UHFFFAOYSA-N,OCCNC(C(c1ccccc1)O)C.Cl,0.209067748,1.8833,231.719
,C721,YGOGAACPYALXRT-GKAPJAKFSA-N,O=C(N(C)C)N[C@H]1C[C@H]2C[C@@H]1[C@H]1[C@@H]2CCC1,-3.01,2.4732,222.327
,C8936,YGRFXPCHZBRUKP-UHFFFAOYSA-N,ON=C1CCCC1,-0.32513803,1.3906,99.1311
,C811,YGRPUMAHIJPCOE-UHFFFAOYSA-N,CCC1(C(=O)NC(=O)NC1=O)C1=CC[C@H]2C[C@@H]1CC2,-2.7,2.1528,262.304
,C9047,YGRSFVUXNRPCJA-UHFFFAOYSA-N,COc1ccc(c(c1)C(C(N)C)O)OC.Cl,-0.126787572,2.5867,247.719
,C2117,YGRZMQRQQAWFAK-UHFFFAOYSA-N,Clc1ccccc1CNCC1CCC(=CC1)CNCc1ccccc1Cl.Cl.Cl,-6.758570063,7.9851,462.283
,C5546,YGSCSZBZKJMUHC-UHFFFAOYSA-N,[O-][N+](=O)c1ncc(n1C)CCCC,-3.014978279,2.1941,183.208
,C2908,YGSDEFSMJLZEOE-UHFFFAOYSA-N,CN(CCCC1(OC(c2c1cccc2)(C)C)c1ccc(cc1)C)C.Cl,-5.219767953,5.6477,359.933
,C3769,YGULWPYYGQCFMP-UHFFFAOYSA-N,O=C1NCNC21c1ccccc1CCc1c2cccc1,-4.272924057,2.3633,264.322
,C1137,YGWFCQYETHJKNX-UHFFFAOYSA-N,OC(=O)c1ccccc1O,-1.8200001,1.0904,138.121
,C6892,YGYNBBAUIYTWBF-UHFFFAOYSA-N,OC(C(C(=O)O)O)C(=O)O.COCCc1ccc(cc1)OCC(CNC(C)C)O.COCCc1ccc(cc1)OCC(CNC(C)C)O,-2.156151056,1.8856,684.815
,C4593,YGZNQARMJUWNCM-UHFFFAOYSA-N,Cc1cc(cc(c1CC1=NCCN1)C)C(C)(C)C.Cl,-3.669584492,3.7115,280.836
,C254,YHAHUGQQOBPXOZ-UIPPETONSA-N,Cc1ccc2c(c1)ccc(c2)C,-4.8899999,3.4566,156.224
,C2816,YHGAGMNSWODGFY-UHFFFAOYSA-N,COc1ccc2c(c1)n(CC[NH+]1CCCC1)c1c2cccc1.[Cl-],-5.332118281,1.055,330.852
,C8276,YHMYGUUIMTVXNW-UHFFFAOYSA-N,NC(=O)OC[C@@H]1N=C(N)N2[C@@]3([C@H]1NC(=N3)N)C(O)(O)CC2.Cl.Cl,-1.111844675,-1.0092,372.208
,C2499,YHQGMYUVUMAZJR-UHFFFAOYSA-N,Nc1c2cc(ccc2nc2c1cccc2)c1ccccc1,-5.839725504,5.2184,270.328
,C7536,YHQXBTXEYZIYOV-UHFFFAOYSA-N,S=c1[nH]c2c([nH]1)cccc2,-1.715018502,2.2255,150.201
,C3794,YHQZCZRZUDDZTA-UHFFFAOYSA-N,CC1=CC=C(CC1)C(C)C,-4.255776496,3.3089,136.234
,C800,YHRJYEJUZXLIEM-UHFFFAOYSA-N,C=CC(C)C,-2.73,1.8284,70.1329
,C6919,YHRUOJUYPBUZOS-UHFFFAOYSA-N,O=P(N1CCOCC1)(Oc1ccccc1)Oc1ccccc1,-2.142467002,3.5226,319.292
,C4572,YHUMTHWQGWPJOQ-UHFFFAOYSA-N,CCN(CC(COc1c(ccc(c1C(=O)OC)C)C(C)C)O)CC,-3.680033172,2.9865,337.454
,C1189,YIANRXVOCWAPDK-UHFFFAOYSA-N,ClCCCCl,-1.62,1.8541,112.986
,C6029,YIAPLDFPUUJILH-UHFFFAOYSA-N,Cl/N=C/1\C=C(Cl)C(=O)C(=C1)Cl,-2.696373312,2.4093,210.445
,C5514,YIBWJJLTYYSHCZ-JEJPKGPBSA-N,[O-][N+](=O)O.[O-][N+](=O)O.CCN1CCN(CC1C(=O)Nc1c(C)cc(cc1C)C)CC,-3.030876886,2.8761,429.468
,C8046,YIDJSSCLYWZDHK-UHFFFAOYSA-N,OC1CCc2c1cccc2,-1.317448764,1.6662,134.175
,C3951,YIEDSISPYKQADU-FMQUCBEESA-N,O[C@H]([C@H](C(=O)O)O)C(=O)O.CCCCN1CC[C@@]23[C@H]([C@H]1Cc1c3cc(cc1)O)CCCC2,-4.139554615,2.066,449.537
,C3175,YIGNINFAAFTVJS-UHFFFAOYSA-L,OC(=O)C(=O)O.CCC(=O)N(c1ccccc1)C(CN1CCN(CC1)c1ccccc1)C.CCC(=O)N(c1ccccc1)C(CN1CCN(CC1)c1ccccc1)C,-4.890685047,6.442,793.005
,C4637,YIKHDPHTFYWYJV-GQCTYLIASA-N,CC(=O)N(c1ccc(cc1C)/N=N/c1ccccc1C)C(=O)C,-3.647057114,4.6182,309.362
,C9356,YILXLSNWYXRHLU-UHFFFAOYSA-N,C[N+](CCCc1ccc(cc1)[N+](C)(C)C)(C)C.[I-].[I-],0.309616053,-3.4699,490.205
,C6777,YIMVBDBJPQQKNE-UHFFFAOYSA-N,COc1cc(OC)ccc1/C=C/C(=O)O,-2.232148011,1.8016,208.211
,C2572,YIVXMZJTEQBPQO-UHFFFAOYSA-N,Ic1ccc(nc1)SCCCCCCCN1CCSC1.Cl,-5.708873561,5.475,458.852
,C3870,YIWUKEYIRIRTPP-QMMMGPOBSA-N,CC(NCC1CCC(CC1)CNC(C)(C)C)(C)C.Cl.Cl,-4.192830183,5.9548,327.376
,C527,YIWXBCXYQCEEPG-UHFFFAOYSA-N,OC(=O)CCCOc1ccc(cc1Cl)Cl,-3.6700001,3.237,249.091
,C1031,YIYGVJMEXPKRPL-UHFFFAOYSA-N,CCCC[C@@H](CO)CC,-2.1099999,2.1951,130.228
,C5210,YJDHHWUZVJSQQZ-UHFFFAOYSA-N,CC(=O)NC(c1ccccc1)(c1ccccc1)CC([N+](C)(C)C)C.[I-],-3.233899469,0.946,452.372
,C2840,YJDYCULVYZDESB-HKQXQEGQSA-N,NC(=N)CCCCCCCCCCCC(=N)N.Cl.Cl,-5.294578518,6.3535,313.31
,C7701,YJGVMLPVUAXIQN-XVVDYKMHSA-N,OCC(COc1cccc(c1)OC)(O)C,-1.597672678,0.8173,212.242
,C97,YJKIALIXRCSISK-SECBINFHSA-N,O=C1CC[C@@H]2[C@]1(C)CC[C@H]1[C@H]2CC[C@@H]2[C@]1(C)CCCC2,-6.6999998,4.9883,274.441
,C4941,YJKSJBJGNTWPSQ-UHFFFAOYSA-L,COc1cc(cc(c1OC)OC)[C@H]1[C@H]2C(=O)OC[C@@H]2[C@H](c2c1cc1OCOc1c2)O,-3.427378809,2.4092,414.405
,C502,YJMIMZCVYFWXAC-UHFFFAOYSA-M,COC(=O)[C@@H](Cc1ccc(cc1)Cl)Cl,-3.77,2.6629,233.091
,C9322,YJOXSXGKJMRYKX-UHFFFAOYSA-N,CC[N+](CCOC(C[N+](CC)(CC)CC)C)(C)C.[I-].[I-],0.28880457,-3.6277,514.268
,C7279,YJQPYGGHQPGBLI-KGSXXDOSSA-N,CCN1C(=O)[N-]C(=O)C(C1=O)(CC)CC.[Na+],-1.907246375,0.9436,234.227
,C8830,YJQUNKOOBWNEAQ-UHFFFAOYSA-N,COc1ccc(cc1)CNCCSS(=O)(=O)O,-0.465309263,2.7925,277.36
,C2936,YJQYMUPERFRTJO-UHFFFAOYSA-N,CO[C@@H]1[C@@H](OC(=O)N)[C@@H](O)[C@@H](OC1(C)C)Oc1ccc2c(c1C)oc(=O)c(c2O)NC(=O)c1ccc(c(c1)CC=C(C)C)O,-5.180495951,4.4004,612.624
,C2970,YJVPMWAGSODFAA-UHFFFAOYSA-N,CN(C(=O)C(CCc1nc2c(s1)nc(s2)CCC(C(=O)N(C)C)(C)C)(C)C)C,-5.143702662,3.8468,424.624
,C8326,YJVYEOGCTYVBEA-UHFFFAOYSA-N,[O-][N+](=O)/N=C(/n1nc(cc1C)C)\N,-1.064199653,1.0779,183.168
,C5100,YJWTWVLTCKLKJR-UHFFFAOYSA-N,COC(=O)c1c(C)ccc(c1OCCN(C)C)C(C)C,-3.312656405,2.8454,279.375
,C4748,YJZJEQBSODVMTH-UHFFFAOYSA-N,CCCc1cc(Cl)ccc1OCC(CO)O,-3.575747234,2.0245,244.715
,C6231,YKASHPSKFYVZRC-UHFFFAOYSA-M,CCCCOc1ccccc1OCC(CO)O,-2.573216935,1.5975,240.296
,C6822,YKHXNYZQQZHKRX-UHFFFAOYSA-N,OCCNC(=O)N(CCCl)N=O,-2.194118202,0.3014,195.604
,C9599,YKJMRLZNLNAMSY-UHFFFAOYSA-L,C[N+](Cc1ccco1)(C)C.[I-],0.573309869,-1.5102,267.107
,C3517,YKJYKKNCCRKFSL-MGPQQGTHSA-N,FC1=C(OCC(F)(F)F)C(F)(F)C(C(C1(F)F)(F)F)(F)F,-4.52129555,4.3012,342.082
,C7062,YKLWSXVRKIUYOM-UHFFFAOYSA-M,C1CNCCO1.C1CNCCO1.[Cl-].[Cl-].[Pt+2],-2.054845936,-6.1245,440.225
,C1193,YKQOSKADJPQZHB-RGYSVOEGSA-N,COc1ccc(cc1)C[C@H]1NC[C@H]([C@@H]1OC(=O)C)O,-1.61,0.8309,265.305
,C7937,YKRGDOXKVOZESV-WRJNSLSBSA-N,CCC(COC(=O)CCC(=O)[O-])(CO)CC.[Na+],-1.428008414,-0.1416,254.255
,C8947,YKSGNOMLAIJTLT-UHFFFAOYSA-N,NCC[C@@H](C(=O)N[C@H]1CCNC(=O)C(NC(=O)[C@@H](CCN)NC(=O)[C@@H](NC(=O)[C@H](NC(=O)[C@H](NC(=O)[C@@H](NC1=O)CCN)CC(C)C)CC(C)C)CCN)[C@H](O)C)NC(=O)[C@H]([C@H](O)C)NC(=O)[C@@H](NC(=O)CCCC(CC)C)CCN,-0.311473932,1.5352,1155.43
,C8043,YKUPNEOUQMMOGV-UHFFFAOYSA-N,OC[C@H]1O[C@@H](O[C@@]23C[C@@H]4[C@@]3(COC(=O)c3ccccc3)[C@@H]3O[C@@]2(C)C[C@]4(O3)O)[C@@H]([C@H]([C@@H]1O)O)O,-1.319934824,-1.3575,480.462
,C1737,YKYONYBAUNKHLG-UHFFFAOYSA-N,O=C1c2ccccc2c2c3c1ccc1c3c(cc2)c2c3c1ccc1c3c(cc2)c2c(C1=O)cccc2,-11.51331275,8.16,456.49
,C7589,YKYVPFIBWVQZCE-UHFFFAOYSA-N,NC1CN(C(=O)C1)c1ccccc1.Cl,-1.674508012,2.3179,212.676
,C1445,YLCXGBZIZBEVPZ-UHFFFAOYSA-N,CCCOC(=O)C,-0.72000003,0.9595,102.132
,C6989,YLDFTMJPQJXGSS-UHFFFAOYSA-N,OC(=O)CCCOc1ccccc1,-2.094394015,1.9302,180.2
,C3131,YLDMGECCVRCKMN-FTPOTTDRSA-N,Clc1ccc2c(c1)C(=NCCN2C)c1ccccc1,-4.941362945,3.1278,270.757
,C5114,YLHGOLRGUDDMDW-UHFFFAOYSA-N,Oc1ccc2c(c1)ccc(c2)Br,-3.303116242,3.3079,223.066
,C6470,YLHJQAQFJJFIHA-UHFFFAOYSA-L,[O-][N+](=O)c1ccc(o1)/C=N/NC(=O)C[NH2+]CCCC.[O-]C(=O)C,-2.433518596,-0.3283,328.321
,C7466,YLJREFDVOIBQDA-UHFFFAOYSA-N,N#CCNc1ccccc1OC,-1.759934353,1.70368,162.189
,C9483,YLQBMQCUIZJEEH-UHFFFAOYSA-N,C=CC[N+](CCOCC[N+](CC=C)(C)C)(C)C.[Br-].[Br-],0.395541737,-4.4642,402.209
,C5626,YLQRXLUMXFSAAG-UHFFFAOYSA-N,Nc1c2CCCCc2nc2c1cccc2,-2.961796915,3.277,198.264
,C1419,YLQWCDOCJODRMT-UHFFFAOYSA-N,c1ccco1,-0.81999999,1.2796,68.074
,C8126,YLRCAHBRRAUPEB-BTJKTKAUSA-N,CCCCC(COC(=O)N)CO,-1.246654256,1.5807,175.225
,C4334,YLRFCQOZQXIBAB-RBZZARIASA-N,O=C1c2ccccc2c2c1cccc2,-3.852477078,2.898,180.202
,C2762,YLRXBQGINRDTNY-UHFFFAOYSA-N,OC(=O)/C=C\C(=O)O.CCNCC1COC2(O1)c1ccccc1C=Cc1c2cccc1,-5.417302507,3.4991,423.458
,C4542,YLSRNLBJYQACQD-UHFFFAOYSA-N,O=C1CC[C@]2(C(=C1)CC[C@@H]1[C@]2(F)[C@@H](O)C[C@]2([C@H]1CC[C@]2(C)O)C)C,-3.697934693,3.3322,336.441
,C5395,YLUWIWDPTZHXQS-UHFFFAOYSA-N,Nc1ccc2c(c1)nc1c(c2)cccc1N,-3.10582577,3.7148,209.247
,C2966,YLXIPWWIOISBDD-NDAAPVSOSA-N,CCCCCCc1ccc2c(c1)ccc(c2)O,-5.146384901,4.6682,228.329
,C3914,YLYGPLGSAOZVSS-UHFFFAOYSA-N,OC(=O)C(c1ccc2c(c1)nc(o2)c1ccc(cc1)[N+](=O)[O-])C,-4.166165972,4.1143,312.277
,C9113,YMBCJWGVCUEGHA-UHFFFAOYSA-M,O[C@H]([C@H](C(=O)O)O)C(=O)O.CNC[C@@H](c1ccc(c(c1)O)O)O,4.82E-05,-1.3811,333.291
,C4851,YMCXHQCNURJAPH-UHFFFAOYSA-N,C=CCNC(=O)OCC(C(CC)C)(COC(=O)N)C,-3.502645642,3.1375,272.341
,C9832,YMDNODNLFSHHCV-UHFFFAOYSA-N,CC[N+](CC)(CC)CC.[Cl-],0.780664387,-1.1132,165.704
,C2389,YMDXZJFXQJVXBF-STHAYSLISA-N,Clc1ccccc1C[NH2+]CCCCCC[NH2+]Cc1ccccc1Cl.[Cl-].[Cl-],-6.044034667,-2.6112,438.262
,C8685,YMGUVTBVYOGUFZ-UHFFFAOYSA-N,ClCCN(CC)CC,-0.691462658,1.567,135.635
,C9851,YMKDRGPMQRFJGP-UHFFFAOYSA-M,C[C@@H]1O[C@@H]1P(=O)(O)O,0.80682944,-0.0911,138.059
,C7122,YMRMDGSNYHCUCL-UHFFFAOYSA-N,COc1ccc(cc1)Cc1cnc(nc1N)N,-2.024779986,2.4028,230.266
,C6322,YMSBFNUBFGRJNW-UHFFFAOYSA-N,CCCCCCCCCCCCCCCC[n+]1ccccc1.[Cl-],-2.522017802,3.4594,339.986
,C5845,YMSBKLBNDJAACW-UHFFFAOYSA-N,FC(C(Cl)(F)F)Cl,-2.818990504,2.3524,152.931
,C2282,YMTINGFKWWXKFG-UHFFFAOYSA-N,C=CC[NH+]1CCc2c(C1CCc1ccc(cc1)Cl)cc(c(c2)OC)OC.[Cl-],-6.262741533,2.2313,408.361
,C1904,YMTRVMXXEIEMLP-PLNGDYQASA-N,FC(c1ccc2c(c1)N(CCCNCCN1CCOCC1)c1c(S2)cccc1)(F)F.Cl,-7.866203051,5.8158,473.982
,C2441,YMUQBPRSTIPGNF-IYPIUBNXSA-N,CC(OC(=O)C(Oc1ccc(cc1)C(=O)c1ccc(cc1)Cl)(C)C)C,-5.9358196,4.68,360.831
,C8653,YMUSDEONEHBNSI-UHFFFAOYSA-N,N=C1SCCN1C,-0.730685097,0.6374,116.185
,C5461,YMVWGSQGCWCDGW-UHFFFAOYSA-N,CN1CC[C@@]2([C@@H]([C@@H]1Cc1c2cccc1)C)C.Br,-3.06342134,3.7366,296.246
,C2746,YMWUJEATGCHHMB-UHFFFAOYSA-N,N/C(=[NH+]/CCC1CCCCCC1)/CSSC/C(=[NH+]/CCC1CCCCCC1)/N.[Cl-].[Cl-],-5.445805907,-2.627,499.648
,C4362,YMXKFPLDZGQMDA-UHFFFAOYSA-N,CN(CCCNc1c2ccccc2nc2c1c(ccc2)[N+](=O)[O-])C,-3.836657612,4.256,324.377
,C1462,YMZJBJPWTXJQMR-LJUKVTEVSA-L,ClCCl,-0.63,1.4215,84.9326
,C3974,YNAKDCXETKZUAM-UHFFFAOYSA-N,OCC(C(=O)N1CC2CCC(C1)N2C)(c1ccccc1)C1CCCCC1,-4.122319448,2.6778,356.502
,C9791,YNARWAUTTJJADX-UHFFFAOYSA-N,C[C@@H]1O[C@@H]1P(=O)([O-])[O-].[Ca+2],0.736912245,0.7853,176.121
,C2309,YNAVUWVOSKDBBP-UHFFFAOYSA-N,CCCCCCCCCSCCCCCCN1CCSC1.Cl,-6.193029049,6.7768,368.084
,C303,YNBADRVTZLEFNH-UHFFFAOYSA-N,CCn1c2ncccc2n(c(=S)c2c1nccc2)C,-4.6300001,3.2346,270.353
,C1648,YNCCSLHZEPXXGW-UHFFFAOYSA-L,C1CNCCO1,1.0599999,-0.065,87.1204
,C1490,YNDXUCZADRHECN-JNQJZLCISA-N,COC(=O)c1cccnc1,-0.46000001,0.8682,137.136
,C3590,YNDXUCZADRHECN-KYKSJQFTSA-N,CC[N+]1(CCOCC[N+]2(CC)CCCC2)CCCC1.[Br-].[Br-],-4.45476312,-3.8104,430.262
,C3726,YNIVVSNZEPMJMD-UHFFFAOYSA-N,OCC(=O)[C@@]12OC(O[C@@H]1C[C@@H]1[C@]2(C)C[C@H](O)[C@]2([C@H]1CCC1=CC(=O)C=C[C@]21C)F)(C)C,-4.315774484,2.4188,434.498
,C372,YNJBWRMUSHSURL-UHFFFAOYSA-N,OCC(=O)[C@]12OC(O[C@H]1C[C@@H]1[C@]2(C)C[C@@H](O)[C@]2([C@H]1CCC1=CC(=O)C=C[C@]21C)F)(C)C,-4.3200002,2.4188,434.498
,C2266,YNPFMWCWRVTGKJ-UHFFFAOYSA-N,c1ccc(cc1)CNCC1CCC(CC1)CSCc1ccccc1.Cl.Cl,-6.310027309,7.5109,412.459
,C8819,YNPNZTXNASCQKK-UHFFFAOYSA-N,OC(=O)C(Cl)(Cl)Cl,-0.476000959,1.4412,163.387
,C3942,YNQLUTRBYVCPMQ-UHFFFAOYSA-N,CN1CCN2C(C1)c1ccccc1Cc1c2cccc1.Cl,-4.145882669,3.8888,300.826
,C203,YNTJKQDWYXUTLZ-ZCFIWIBFSA-N,c1ccc2c(c1)c1ccccc1cc2,-5.2600002,3.993,178.229
,C785,YNVGQYHLRCDXFQ-XGXHKTLJSA-N,CCc1ccccc1,-2.77,2.249,106.165
,C995,YNVOMSDITJMNET-UHFFFAOYSA-N,OC(=O)[C@H](Oc1cccc(c1)Cl)C,-2.22,2.1919,200.619
,C2654,YNXOHEFIGBHBPG-UHFFFAOYSA-N,C#C[C@]1(O)CC[C@@H]2[C@]1(C)CC[C@H]1[C@H]2CCC2=CCCC[C@H]12,-5.568747127,4.3135,284.436
,C1250,YNZFUWZUGRBMHL-UHFFFAOYSA-N,OC(=O)c1cscc1,-1.47,1.4463,128.149
,C2943,YNZXWQJZEDLQEG-UHFFFAOYSA-N,Brc1ccc(nc1)SCCCCCCCN1CCSC1.Cl.Cl,-5.171564712,6.4349,448.312
,C4751,YOAUVDYBDJTJJP-REOHCLBHSA-N,OCCN1CCN(CC1)CCCN1c2ccccc2C=Cc2c1cccc2,-3.574007374,3.2493,363.496
,C542,YOCBPCQZXRQJFU-UHFFFAOYSA-N,COc1c(OC)c(OC)cc2c1nc(nc2N)N1CCN(CC1)C(=O)OCC(O)(C)C,-3.6400001,1.8514,435.474
,C8871,YOEWQQVKRJEPAE-UHFFFAOYSA-L,NC(=O)SC[C@@H](C(=O)O)N,-0.416666961,0.6108,164.183
,C3173,YOFROOKXIBMQTF-UHFFFAOYSA-N,COc1cc(OC)c(cc1C(=O)CCC(=O)O)C1CCCCC1,-4.897146155,3.799,320.38
,C9201,YOHMQBXKTUQPDM-UHFFFAOYSA-N,O=C(OCC[N+](C)(C)C)CCC(=O)OCC[N+](C)(C)C.[Cl-].[Cl-],0.141097247,-5.7266,361.305
,C4732,YOLHKYWNQMSMDN-UHFFFAOYSA-N,CC(=O)Oc1c(C(=O)O)c(OC(=O)C)c(c(c1Cl)C)Cl,-3.584961932,2.8506,321.11
,C7772,YOLLUMURPUEOJW-UHFFFAOYSA-N,C=CCOCC(OC(=O)C)COC(=O)C,-1.548880763,0.6838,216.231
,C8088,YORNKOJOAYSWBP-UHFFFAOYSA-N,COc1ccc2c(c1)[nH]c(=O)o2,-1.282870141,1.1297,165.146
,C8155,YOSDTJYMDAEEAZ-UHFFFAOYSA-N,CC1(CNC1)c1ccccc1,-1.22695549,1.8763,147.217
,C3244,YOYAIZYFCNQIRF-UHFFFAOYSA-N,CC(NC(CC12CC3CC(C1)CC(C2Cl)C3)C)C.Cl,-4.813147357,5.3896,306.314
,C7514,YPCALTGLHFLNGA-UHFFFAOYSA-N,Cc1ccc(s1)C(=O)C,-1.729608604,2.2591,140.203
,C390,YPGMOWHXEQDBBV-IMJSIDKUSA-N,N#Cc1c(Cl)cccc1Cl,-4.2399998,2.86508,172.011
,C868,YPGMOWHXEQDBBV-QWWZWVQMSA-N,O=C(C1=C(C)OCCC1)Nc1ccccc1,-2.5599999,2.7825,217.264
,C9725,YPGSWQHGZLTTGJ-UHFFFAOYSA-N,O[C@H]1CSSC[C@@H]1O,0.672424187,0.1032,152.235
,C9726,YPHMISFOHDHNIV-FSZOTQKASA-N,O[C@@H]1CSSC[C@H]1O,0.672424187,0.1032,152.235
,C6061,YPHMISFOHDHNIV-SPFNVWMYSA-N,CN(c1c(C)n(c2ccc(cc2)Cl)c(=O)n(c1=O)C)C,-2.677694204,1.564,293.749
,C8254,YPIFLXOVPCARGI-UHFFFAOYSA-N,C[C@H]1C[C@H](C)C(=O)[C@@H](C1)[C@@H](CC1CC(=O)NC(=O)C1)O,-1.127030697,1.3703,281.347
,C1347,YPIQVCUJEKAZCP-UHFFFAOYSA-N,C[C@H]1C[C@@H](C)C(=O)[C@H](C1)[C@H](CC1CC(=O)NC(=O)C1)O,-1.13,1.3703,281.347
,C6145,YPKBVWZHVTZSPU-UHFFFAOYSA-N,CCc1nc2c(o1)cccc2,-2.630020851,2.3902,147.174
,C3528,YPKXIQOEOPDWBK-UHFFFAOYSA-N,CC(OC(=O)C(=C1SC=CS1)C(=O)OC(C)C)C,-4.505909682,3.0524,288.383
,C6932,YPNGOYFSQMSAOZ-UHFFFAOYSA-N,CC(Cc1ccccc1)NC(=O)C,-2.134635516,2.1446,177.243
,C7399,YPNZTHVEMNUDND-UHFFFAOYSA-N,[O-]S(=O)(=O)O.CC[NH+](CCNC(=O)c1ccc(cc1)N)CC,-1.819678151,0.9808,333.404
,C5883,YPQLFJODEKMJEF-UHFFFAOYSA-N,OC(=O)c1ccccc1CC(=O)c1ccccc1C(=O)O,-2.790968615,2.5084,284.263
,C628,YPRWUHITXSFUFV-UHFFFAOYSA-N,CCCCCCCCOC(=O)N,-3.3,3.1425,173.253
,C4118,YPSQTTRYMSZAGR-UHFFFAOYSA-N,O=C(C(O)(C)C)Nc1ccc(c(c1)C(F)(F)F)[N+](=O)[O-],-4.027158656,2.9192,292.211
,C5774,YPTFHLJNWSJXKG-UHFFFAOYSA-N,OC(C(Br)(Br)Br)NC(=O)C(F)(F)F,-2.867712398,2.2127,393.779
,C6934,YPVRJHARGFOWMD-UHFFFAOYSA-N,CCCn1c(=O)cc(n(c1=O)CC)N,-2.13362261,0.6033,197.234
,C5117,YPWPVPLDLYIPNI-UHFFFAOYSA-N,CCOc1cc(OCC)c(cc1C(=O)CCC(=O)O)OCC,-3.299557554,2.9302,310.342
,C9031,YPZRWBKMTBYPTK-BJDJZHNGSA-N,NCCNCCCC(=O)c1ccccc1,-0.147158736,2.289,206.284
,C4731,YQBNJPACAUPNLV-UHFFFAOYSA-N,CCNC(=O)c1cc(Br)cc(c1O)C,-3.585997782,2.6037,258.112
,C8948,YQBRPZBLROENTD-UHFFFAOYSA-N,O=C(N[C@H](C(=O)NCC(=O)O)CSSC[C@@H](C(=O)NCC(=O)O)NC(=O)CC[C@@H](C(=O)O)N)CC[C@@H](C(=O)O)N,-0.310074156,-0.9126,612.631
,C3978,YQEJFKZIXMSIBY-SXGIMHKGSA-N,COc1c(oc2c1cc1ccc(=O)oc1c2)C(C)C,-4.121599211,3.6712,258.269
,C4106,YQEZLKZALYSWHR-UHFFFAOYSA-N,CCOC(=O)N1CCCc2c1cccc2,-4.040456371,2.6607,205.253
,C3267,YQGWWPIFPHGHTG-UHFFFAOYSA-N,CCCCC[C@@H]1CN[C@@H](C1)C(=O)N[C@@H]([C@H]1O[C@H](SC)[C@@H]([C@H]([C@H]1O)O)O)[C@@H](Cl)C.Cl,-4.774572687,2.3492,475.471
,C7240,YQNFBOJPTAXAKV-OMCISZLKSA-N,CNC1(CCCCC1=O)c1ccccc1Cl,-1.929230818,3.2887,237.725
,C6016,YQNQNVDNTFHQSW-UHFFFAOYSA-N,CC1[NH2+]CCc2c3c1cccc3[nH]c2.[Cl-],-2.704298742,-0.0784,222.714
,C2014,YQTAUCCALHOTQC-UHFFFAOYSA-N,OC(=O)CCc1c(I)cc(c(c1I)/N=C/N(C)C)I,-7.128996546,3.739,597.957
,C4947,YQULREKUYCCSJA-UHFFFAOYSA-N,CC(=O)Oc1ccccc1C(=O)Nc1ncc(s1)[N+](=O)[O-],-3.423076305,2.8251,307.282
,C6235,YQWCIPIEEBVRNY-BRXBUPTESA-N,O=C1C(CCN1c1ccc(cc1)F)N1CCCCC1,-2.570039947,2.4198,262.323