Name,Compound ID,InChIKey,SMILES,logS,logP,MW
,C9055,WVCHIGAIXREVNS-UHFFFAOYSA-N,OP(=O)(O)O.COc1ccc2c3c1O[C@@H]1[C@@]43CCN([C@H](C2)[C@@H]4C=C[C@@H]1O)C,-0.107826836,0.5104,397.359
,C4251,WVCOAAVBRUYWPP-UHFFFAOYSA-N,CCCN1C(=NC(=O)C(C1=O)(CC)CCC(C)C)[O-].[Na+],-3.922575887,1.7578,290.334
,C7617,WVDDGKGOMKODPV-UHFFFAOYSA-N,O=C1C=C(O)c2c(C1=O)cccc2,-1.650428486,1.3509,174.153
,C4849,WVECFEIAZAKUNF-UHFFFAOYSA-N,O=C(C(c1ccccc1)(c1ccccc1)O)OCCC[NH+]1CCCC1.[Cl-],-3.503182242,0.1077,375.889
,C1509,WVEHPOKMRMWSLF-UHFFFAOYSA-N,OCc1ccccc1,-0.40000001,1.1789,108.138
,C1968,WVFBDVFCOCLEFM-UHFFFAOYSA-N,O=C1c2ccccc2c2c3c1cccc3c(cc2)Br,-7.359852326,4.8137,309.157
,C4168,WVFGKGPFQSEWON-DYWKTHLTSA-N,O=C1NCC(C2(O1)CCN(CC2)CCCC(=O)c1ccc(cc1)Cl)C,-3.991595217,3.7801,364.866
,C392,WVGCPEDBFHEHEZ-UHFFFAOYSA-N,ClC(=CC(=C(Cl)Cl)Cl)Cl,-4.23,4.1909,226.316
,C6721,WVIDHXRYTCCXBY-UHFFFAOYSA-N,Oc1ccc2c(c1)[C@]13CCCC[C@H]3[C@@H](C2)N(CC1)C.Br,-2.264470053,3.9764,338.283
,C8311,WVIUOSJLUCTGFK-JUJPXXQGSA-N,Brc1c[nH]nc1,-1.084458128,1.1722,146.973
,C4938,WVKIYGXHDKTNFO-UHFFFAOYSA-M,O=C1C(CCN1c1ccc(cc1)C)N1CCCCC1,-3.429962431,2.5891,258.359
,C4913,WVLAAKXASPCBGT-UHFFFAOYSA-N,CN(C(=O)N[C@@]1([C@@H](O)C)[C@@H](N)[C@@H]([C@]([C@]1(C)O)(O)COC(=O)c1c(C)cccc1O)Nc1cccc(c1)C(=O)C)C,-3.446530341,1.9187,558.623
,C4224,WVLOADHCBXTIJK-YNHQPCIGSA-N,[O-]C(=O)C(c1cccc(c1)Oc1ccccc1)C.[Na+],-3.943458378,2.3323,264.252
,C6464,WVMBPWMAQDVZCM-UHFFFAOYSA-N,Oc1cc(O)cc(c1)C(CNCCCn1cnc2c1c(=O)n(C)c(=O)n2C)O,-2.43689933,-0.0509,389.406
,C6862,WVQBLGZPHOPPFO-GFCCVEGCSA-N,O=C1CC[C@@H]2[C@@]34[C@H]1Oc1c4c(C[C@H]2N(CC3)C)ccc1O,-2.169809899,1.5682,285.338
,C753,WVRIPRILKKOIQL-BQYQJAHWSA-N,CNc1ccccc1C(=O)O,-2.8800001,1.4995,151.163
,C797,WVTKBKWTSCPRNU-KYJUHHDHSA-N,COC[C@H](N(c1c(C)cccc1CC)C(=O)CCl)C,-2.73,3.1641,283.794
,C5170,WVXSKDLFWSXKCG-UHFFFAOYSA-M,C/C(=C\C(=O)O)/C1CCCCC1,-3.26592407,2.5976,168.233
,C1771,WVYWICLMDOOCFB-ZCFIWIBFSA-N,COc1c(OC)cc2c3c1Oc1cc4c(cc1OC)CCN([C@H]4Cc1ccc(Oc4cc(C[C@@H]3N(CC2)C)ccc4OC)cc1)C,-9.864392559,7.0382,622.75
,C5969,WVYWSPZQGQMPKW-SPIKMXEPSA-N,C[N+]1(CCCCN2CC3CCCC(C2)C3)CCCC1.[I-],-2.738175521,0.0297,392.362
,C1431,WVYXNIXAMZOZFK-UHFFFAOYSA-N,CC(C[C@H](O)C)C,-0.80000001,1.4133,102.175
,C2162,WWGQHTJIFOQAOC-UHFFFAOYSA-N,OC(=O)/C=C\C(=O)O.OC(=O)/C=C\C(=O)O.CCCC(=O)c1ccc2c(c1)N(CCCN1CCN(CC1)C)c1c(S2)cccc1,-6.589872472,4.274,641.732
,C6921,WWGUMAYGTYQSGA-UHFFFAOYSA-N,CCOC(=O)NC1=C(N2CC2)C(=O)C(=C(C1=O)N1CC1)NC(=O)OCC,-2.141407461,0.3424,364.353
,C826,WWGXHTXOZKVJDN-UHFFFAOYSA-M,Clc1cc(O)c(c(c1)Cl)Cl,-2.6700001,3.3524,197.446
,C283,WWISPHBAYBECQZ-UHFFFAOYSA-N,Cc1cc2ccccc2cc1C,-4.7199998,3.4566,156.224
,C9689,WWJZWCUNLNYYAU-UHFFFAOYSA-N,CCN(C(=S)[S-])CC.[Na+].O.O.O,0.647244591,0.9671,225.305
,C9028,WWKINABOMDPLIE-UHFFFAOYSA-N,CC1NC(=O)C(NC1=O)C,-0.152771305,-0.333,142.156
,C128,WWKKKNWWXRBJSO-UHFFFAOYSA-N,COP(=S)(Oc1ccc(cc1)Sc1ccc(cc1)OP(=S)(OC)OC)OC,-6.2399998,6.9312,466.469
,C4265,WWMPOSZANYFKNP-XJXJHPFJSA-M,BrCCN(c1ccc(cc1)S(=O)(=O)N)CCBr,-3.908183661,3.7113,386.103
,C4248,WWNKRYMNNRLGOW-UHFFFAOYSA-N,CN1CC2CCC(C1)N2CCOC(=O)C1CCCC1c1ccccc1,-3.926112985,2.7677,342.475
,C2645,WWOFPCHIWHXPBF-UHFFFAOYSA-N,CCC[N+]12CCC(C(C1)C=C)C[C@@H]2[C@H](c1ccnc2c1cc(OC)cc2)O.[Cl-],-5.584075883,1.0608,402.957
,C3347,WWOQNKXXDOLCLH-UHFFFAOYSA-N,CC[NH+](CCOC(=O)C1c2ccccc2c2c1cc(N)cc2)CC.[Cl-],-4.684044607,-0.5658,360.878
,C2393,WWPDLGXXOXAQKK-UHFFFAOYSA-M,COC1(CCC(CC1)NCCCC(=O)c1ccc(cc1)F)c1ccccc1C.COC1(CCC(CC1)NCCCC(=O)c1ccc(cc1)F)c1ccccc1C.Cl.Cl.O,-6.034186756,12.6637,857.935
,C4554,WWPRGAYLRGSOSU-UHFFFAOYSA-M,NC(=O)c1nc(C)c2c(c1)c1ccccc1[nH]2,-3.693701904,2.8237,225.246
,C6221,WWPWSGWQSUCSDH-UHFFFAOYSA-N,CC[N+](CCOC(=O)Cc1ccc(cc1)c1ccccc1)(CC)C.[I-],-2.58090008,0.9297,453.357
,C3625,WWRCMNKATXZARA-UHFFFAOYSA-N,COC1C(OC(=O)N)C(O)C(OC1(C)C)Oc1ccc2c(c1C)oc(=O)c(c2O)NC(=O)c1ccc(c(c1)CC=C(C)C)[O-].[Na+],-4.411574548,4.8386,634.606
,C8040,WWROGCAUSKGAMX-UHFFFAOYSA-N,CCC(=O)N1C2CCCC1CN(C2)C,-1.320241455,0.9673,196.289
,C504,WWUVJRULCWHUSA-UHFFFAOYSA-N,CC(c1ccccc1C)C,-3.76,3.1184,134.218
,C6881,WWVAPFRKZMUPHZ-UHFFFAOYSA-N,CCOc1ccc(cc1)NC(=O)CC(=O)C,-2.163051469,2.0759,221.252
,C717,WWXBHTZSYYGCSG-UHFFFAOYSA-N,CCCC(=C)C,-3.03,2.3626,84.1595
,C1744,WWXMVRYHLZMQIG-SNAWJCMRSA-N,O=C(Nc1c(I)cc(c(c1I)C(=O)O)I)CCOCCOCCOCCOCCC(=O)Nc1c(I)cc(c(c1I)C(=O)O)I,-11.20897751,6.2804,1287.92
,C8953,WWYNJERNGUHSAO-XUDSTZEESA-N,NC(=O)Nc1ccc(cc1)[As](=O)(O)O,-0.29027846,-0.4885,260.079
,C5570,WWZKQHOCKIZLMA-UHFFFAOYSA-N,OC(=O)/C=C/c1cccc(c1)[N+](=O)[O-],-2.99811097,2.2158,193.156
,C2877,WWZYJJGFUIAWNW-UHDJGPCESA-N,C#C[C@]1(O)CC[C@@H]2[C@]1(CC)CC[C@H]1[C@H]2CCC2=CC(=O)CC[C@H]12,-5.183030838,3.8826,312.446
,C971,WWZYSFVVLXIGSX-UHFFFAOYSA-N,CCCCCCCC(=O)O,-2.3,2.4315,144.211
,C9671,WXAVSBXISBMWAC-UHFFFAOYSA-N,[O-]S(=O)(=O)C.O=[NH+]/C=c/1\ccccn1C,0.634036798,-0.8666,232.257
,C4980,WXAYTPABEADAAB-UHFFFAOYSA-N,COc1cc(ccc1OC)C1CCC2N(C1)CCCC2,-3.398558635,3.3736,275.386
,C4883,WXFIGDLSSYIKKV-RCOVLWMOSA-N,OCCN1CCN(CC1)c1nc(c(o1)c1ccccc1)c1ccccc1.Cl,-3.472522423,3.9278,385.887
,C6676,WXFJHNDXYIDTAF-UHFFFAOYSA-N,CN1CCCN=C1COC(=O)C(c1ccccc1)(C1CCCCC1)O.Cl,-2.290791172,2.9072,380.909
,C9826,WXMKPNITSTVMEF-UHFFFAOYSA-M,C[C@@H]([C@@H](c1cccc(c1)O)O)N,0.776742974,1.4731,167.205
,C8029,WXNZTHHGJRFXKQ-UHFFFAOYSA-N,Cn1c(=O)n(C)c2c(c1=O)n(CCOS(=O)(=O)O)cn2.OCc1c(CO)cnc(c1O)C,-1.326003014,-0.5859,473.458
,C9610,WXORVJKMLQDWJL-UHFFFAOYSA-N,[O-]C(=O)c1ccccc1.[Na+],0.586395742,0.0501,144.103
,C1453,WXSCUAIQCDLFSI-UHFFFAOYSA-N,Oc1ccc(cc1)Cl,-0.69999999,2.0456,128.556
,C3806,WXTVPMWCUMEVSZ-UHFFFAOYSA-N,Nc1ccc2c(c1)cc1c(n2)cc(cc1)N(C)C,-4.24497495,3.6174,237.3
,C8041,WXURHACBFYSXBI-NRIXXJGXSA-N,CCCC(=O)N1C2CCC1CN(C2)C,-1.320241455,0.9673,196.289
,C3218,WXVVDXRFHVTKKE-UHFFFAOYSA-M,OC(=O)c1cc(I)c(c(c1)I)N,-4.846362796,2.7574,388.929
,C170,WXZVAROIGSFCFJ-ZDUSSCGKSA-N,OCC(=O)[C@@]1(O)[C@H](C)C[C@@H]2[C@]1(C)C[C@@H](O)[C@]1([C@H]2C[C@@H](C2=CC(=O)C=C[C@]12C)F)F,-5.6100001,1.8437,410.452
,C9104,WYCLKVQLVUQKNZ-UHFFFAOYSA-N,[O-][Cl](=O)(=O)=O.CCCN(/C=C/C=C/C=[N+](CCC)CCC)CCC,-0.01936154,4.2959,364.908
,C558,WYDBQEACYWRGIP-UHFFFAOYSA-N,CCN(C(=O)[C@@H](Oc1cccc2c1cccc2)C)CC,-3.5699999,3.4755,271.354
,C2947,WYKYKTKDBLFHCY-UHFFFAOYSA-N,Clc1ccc2c(c1)C(=NCC(=O)N2CC(F)(F)F)c1ccccc1,-5.165438899,3.5869,352.738
,C4496,WYMSBXTXOHUIGT-UHFFFAOYSA-N,CC1CCCCN1CCCOC(=O)c1cccs1,-3.729039727,3.1073,267.387
,C754,WYPOHFPDZTUCMQ-UHFFFAOYSA-N,Nc1cnn(c(=O)c1Cl)c1ccccc1,-2.8699999,2.0493,221.643
,C7310,WYQIVZKSGGKUAX-UHFFFAOYSA-N,CCOP(=O)(Oc1ccc(cc1)[N+](=O)[O-])OCC,-1.878542296,3.6779,275.195
,C6196,WYQWZFORYHRFBW-UHFFFAOYSA-N,CCCC(=O)Oc1ccccc1C(=O)O,-2.598348538,2.0903,208.211
,C2671,WYRBITQXPQGTBL-UHFFFAOYSA-N,OC(=O)c1ccc2c(c1)c1ccccc1cc2,-5.541327233,3.6912,222.239
,C1794,WYTRYIUQUDTGSX-UHFFFAOYSA-N,Clc1ccc(nc1)OCCCCCCNCCSSCCNCCCCCCOc1ccc(cn1)Cl.Cl.Cl,-9.321997031,9.3084,648.579
,C2664,WYUAEPSEGJFWKX-YGICXTQQSA-N,O=C(c1ccccc1)CC(c1ccccc1)c1ccccc1,-5.55113769,5.0915,286.367
,C7991,WYURNTSHIVDZCO-UHFFFAOYSA-N,CC(Cc1ccccc1)O,-1.367893885,1.6099,136.191
,C3998,WYUYEJNGHIOFOC-NWBUNABESA-N,Oc1ccc2c(c1)[C@]13CCCC[C@H]3[C@@H](C2)N(CC1)CCc1cccc(c1)N.Cl,-4.110987215,5.5966,398.969
,C1611,WYWHKKSPHMUBEB-UHFFFAOYSA-N,C1CCCO1,0.56,0.7968,72.1057
,C7840,WYWIFABBXFUGLM-UHFFFAOYSA-N,Cc1ccc(cc1)/C(=C\CN1CCCC1)/c1ccccn1.Cl,-1.501601667,4.6574,314.852
,C8702,WYXSYVWAUAUWLD-SHUUEZRQSA-N,Nc1nc(=S)c2c([nH]1)nc[nH]2,-0.663303673,1.1789,167.192
,C2857,WYZDXEKUWRCKOB-YDSAWKJFSA-N,Cc1cc(c(c(c1CC1=NCCN1)C)O)C(C)(C)C,-5.278571852,2.6151,260.375
,C8824,WYZIGOITRAONMZ-UHFFFAOYSA-N,OC[C@H]1O[C@H]([C@@H]([C@@H]1O)O)n1ncc(=O)[nH]c1=O,-0.471421723,-3.4569,245.189
,C3280,WZBKGWBHAPBSBF-UHFFFAOYSA-N,O=C1CC[C@]2([C@H](C1)CC[C@@H]1[C@@H]2CC[C@]2([C@H]1CC[C@]2(C)O)C)C,-4.758701125,4.3492,304.467
,C6460,WZBSJWUNLSNPMJ-UHFFFAOYSA-N,[O-][N+](=O)c1ncc(n1C)CCCl,-2.439616821,1.6328,189.6
,C8660,WZHCOOQXZCIUNC-UHFFFAOYSA-N,Cc1[nH]c2c(n1)n(C)c(=O)n(c2=O)C,-0.727611933,-0.7313,194.191
,C2473,WZHVLILJVZZLNS-UHFFFAOYSA-N,CC[NH+](CCCOC(=O)C1c2ccccc2c2c1cccc2)CC.[Cl-],-5.879481009,-0.3391,359.89
,C4192,WZJMZKKLJRBDOL-UHFFFAOYSA-N,CC1CC(OC(=O)C(c2ccccc2)O)CC(C1)(C)C,-3.972857674,3.478,276.371
,C8065,WZJZMXBKUWKXTQ-UHFFFAOYSA-N,CCC(=O)N1CCN(CC1)C,-1.302224195,0.0462,156.225
,C6112,WZKXTRAAYUOPSE-UHFFFAOYSA-N,CCCNC(=O)OCC(COC(=O)N)(CC)C,-2.653489446,2.7254,246.303
,C302,WZLOCUGJPMVLCX-UHFFFAOYSA-M,CCOC(=O)Nc1cccc(c1)OC(=O)Nc1ccccc1,-4.6300001,4.0119,300.309
,C7702,WZNIVRAEOQQUIB-UHFFFAOYSA-N,OCC(COc1ccc(cc1)OC)(O)C,-1.597672678,0.8173,212.242
,C8730,WZOMEARVDFBWTD-JVFQMWRPSA-N,O=C(c1ccccc1)Oc1ccccc1[N+](C)(C)C.[Br-],-0.608604832,0.1065,336.224
,C7139,WZOZEZRFJCJXNZ-ZBFHGGJFSA-N,CCN(CCn1cnc2c1c(=O)n(C)c(=O)n2C)CC.Cl,-2.005260282,0.5775,315.799
,C3207,WZRLTEAJABPZBF-UHFFFAOYSA-N,Oc1ccc2c(c1)[C@]13CCCC[C@H]3[C@@H](C2)N(CC1)CCc1cccs1.Cl,-4.86595003,5.4947,389.982
,C4697,WZUMCRQKXQMYEY-UHFFFAOYSA-N,CO[C@@]1(NC(=O)Cc2cccs2)C(=O)N2[C@@H]1SCC(=C2C(=O)O)COC(=O)N,-3.608865528,1.1277,427.452
,C5207,XACLFEQIRWKYKU-UHFFFAOYSA-M,CCC(C(c1ccccc1)(C(=O)N)CCN1CCOCC1)C,-3.235519873,2.8163,304.427
,C2206,XADCESSVHJOZHK-UHFFFAOYSA-N,COc1cc2c(cc1OC)CCN(C2CCc1ccc(c(c1Cl)Cl)Cl)C,-6.471659417,5.7637,414.753
,C3220,XAEQXKDZYYQGHE-UHFFFAOYSA-L,[O-]C(=O)C(c1cccc2c1cccc2)CC1OC=CC=C1.[Na+],-4.845968046,2.5321,302.3
,C1113,XAEWZDYWZHIUCT-UHFFFAOYSA-N,CCOC(=O)C1(CCN(CC1)C)c1ccccc1,-1.89,2.151,247.333
,C9386,XAMBIJWZVIZZOG-UHFFFAOYSA-N,C[N+](CCOCC[N+]1(C)CCCC1)(C)C.[I-].[I-],0.327737686,-5.0836,470.172
,C3059,XAMZAUGUBOIFKY-UHFFFAOYSA-N,CNCCCN1c2ccccc2CCc2c1cccc2.Cl,-5.032515536,4.7907,302.842
,C8138,XANUSFXLDREZGY-ACAGNQJTSA-N,NNc1ccc(cc1)C,-1.238779012,2.0539,122.168
,C6833,XAPRFLSJBSXESP-UHFFFAOYSA-N,CN(c1c(=O)[nH]c(=O)n(c1C)c1ccccc1)C,-2.185274347,0.9002,245.277
,C6449,XAQRHUZUBSOOSY-UHFFFAOYSA-N,[O-][N+](=O)c1ccc(o1)/C=N\N1CC(=O)N(C1=O)CC(=O)OCC,-2.446420643,0.748,324.246
,C3169,XAUDJQYHKZQPEU-KVQBGUIXSA-N,OC(=O)c1c(O)c(nc2c1cccc2)c1ccccc1,-4.903725699,3.3056,265.263
,C6101,XAXZRLRPMYYALI-UHFFFAOYSA-N,CCN1C(CCC1(C)C)c1c[nH]c2c1cccc2,-2.659377174,4.0412,242.359
,C8769,XAZLLTCLHJFEHD-UHFFFAOYSA-N,OC[C@H]1O[C@H](C[C@@H]1O)n1cnc(nc1=O)N,-0.561063305,-1.5576,228.205
,C2592,XBAVGYMDOXCWQU-UHFFFAOYSA-N,Clc1ccc2c(c1)c(C)cc(n2)SCCCCCN1CSCC1.Cl.Cl,-5.672989305,7.0072,439.894
,C2021,XBBDACCLCFWBSI-ZETCQYMHSA-N,C1CCC(CC1)CNCC1CCC(=CC1)CNCC1CCCCC1.CC(=O)O.CC(=O)O,-7.101908271,6.0163,452.67
,C8741,XBCXJKGHPABGSD-UHFFFAOYSA-N,OCc1c(C)[nH]c(=O)[nH]c1=O,-0.594070609,-1.1361,156.139
,C9728,XBGNOMBPRQVJSR-UHFFFAOYSA-N,COC(=O)[C@H](Cc1ccc(c(c1)O)O)N,0.67527113,0.8409,211.215
,C1425,XBHCIDWYCKQMQS-UHFFFAOYSA-N,Cn1ccc(=O)[nH]c1=O,-0.80000001,-0.9264,126.113
,C6256,XBHCKECWLOIGPC-IYJPBCIQSA-N,CCC(c1ccc(cc1)[N+](=O)[O-])C(=O)O,-2.562409134,2.6962,209.199
,C3635,XBHCKECWLOIGPC-MHDYBILJSA-N,CCOc1cc(C)ccc1C(C)C,-4.402901304,3.5171,178.271
,C7238,XBHOUXSGHYZCNH-UHFFFAOYSA-N,C[C@@H]1C[C@@H](C(=O)N1c1ccccc1)N(C)C.Cl,-1.931911567,2.609,254.756
,C7237,XBJBPGROQZJDOJ-UHFFFAOYSA-N,C[C@@H]1C[C@H](C(=O)N1c1ccccc1)N(C)C.Cl,-1.931911567,2.609,254.756
,C3660,XBJNPWNVZQJOOQ-UHFFFAOYSA-N,c1ccc(cc1)c1nc2c(s1)cccc2,-4.380182465,3.9633,211.282
,C7556,XBKPDHARMKAQQU-UHFFFAOYSA-N,FCCn1cc(C(=O)O)c(=O)c2c1c(F)c(N1CCN(CC1)C)c(c2)F,-1.702801312,1.7021,369.338
,C4520,XBPMXUYSYAIPTR-UHFFFAOYSA-N,CN(CC(c1ccc2c(c1)c1ccccc1cc2)O)C.Cl,-3.709624086,4.39,301.811
,C5206,XBQMOSVDTGDYFV-GQCTYLIASA-N,CCCCN1CCC(CC1)(OC(=O)CC)c1cccnc1.Cl.Cl,-3.236010436,4.6679,363.322
,C3745,XBQPHDPNQNWVDG-UHFFFAOYSA-N,CC(OC(=O)N1CC=Cc2c1cccc2)C,-4.299569289,3.1298,217.264
,C6668,XBQZDVPAJGHARN-CEFNGPBASA-N,ONC(=O)/C=C/c1ccc(c(c1)C)OC,-2.299417192,1.9131,207.226
,C4707,XBSXQOUEVBSXEI-UHFFFAOYSA-N,CCN1CCCC(C1)OC(=O)Nc1ccc(cc1)Cl,-3.598340746,3.3837,282.766
,C2493,XBTOSRUBOXQWBO-UHFFFAOYSA-N,Clc1ccc2c(c1)/C(=C/CCN1CCNCC1)/c1c(S2)cccc1.Cl.Cl,-5.843713991,6.4023,429.834
,C6898,XBWAZCLHZCFCGK-UHFFFAOYSA-N,CCCC(COC(=O)N)(COC(=O)N)CC,-2.153824213,2.7741,232.277
,C8657,XBZKJGBIPSQKAU-UHFFFAOYSA-N,Nc1ccc2c(c1)cn[nH]2,-0.728503874,1.7263,133.151
,C7977,XCDXSSFOJZZGQC-UHFFFAOYSA-N,Clc1ccc2c(c1)C(=NCCN2C)c1ccccc1.Cl,-1.387076098,3.9298,307.218
,C1825,XCENPWBBAXQVCG-UHFFFAOYSA-N,Brc1ccc2c(c1)C(=O)c1c3c2ccc(c3ccc1)Br,-8.695689899,5.5762,388.053
,C2851,XCEYNQCFXXAOBL-UHFFFAOYSA-N,ClCCN(c1ccc2c(c1)cccc2)CCCl,-5.286978232,4.1238,268.182
,C8299,XCFIZMVCZBZSST-JXMYBXCISA-N,O=CC1(CCNCC1)c1ccccc1,-1.098077299,1.8355,189.254
,C292,XCGOOGLJHMKVRE-UHFFFAOYSA-N,CCCCC(=O)OCN1C(=O)NC(C1=O)(c1ccccc1)c1ccccc1,-4.6799998,3.4396,366.41
,C5667,XCGSFFUVFURLIX-VFGNJEKYSA-N,O=C(Cc1ccc(cc1)C)OC1C[C@@H]2CC[C@H](C1)N2C.Cl,-2.936034639,3.4458,309.831
,C4014,XCGYUJZMCCFSRP-UHFFFAOYSA-N,OC(=O)C(c1ccc2c(c1)nc(s2)c1ccccc1)C,-4.10401069,4.1514,283.345
,C2835,XCJXQCUJXDUNDN-OZUNKVAOSA-N,O=C([C@H]1CN(C)[C@H]2C(=C1)c1cccc3c1c(C2)c[nH]3)N[C@]1(C)O[C@@]2(N(C1=O)[C@@H](Cc1ccccc1)C(=O)N1[C@H]2CCC1)O,-5.300636677,2.1954,581.662
,C6304,XCKRRIQXHFBKKB-QGZVFWFLSA-N,OCc1cc2CCC(Nc2cc1[N+](=O)[O-])CNC(C)C,-2.532584171,2.8639,279.335
,C167,XCLJRCAJSCMIND-JCTYMORFSA-N,ClC1=C(Cl)[C@]2(C([C@]1(Cl)[C@H]1[C@@H]2CC=C1)(Cl)Cl)Cl,-5.6399999,5.0242,338.873
,C330,XCNYTGVCVIZWBO-UHFFFAOYSA-N,CC(OC(=O)[C@](c1cccc(c1)Cl)(c1ccc(cc1)Cl)O)C,-4.5300002,4.1809,339.213
,C2345,XCPGHVQEEXUHNC-UHFFFAOYSA-N,CC[C@H]1OC(=O)[C@H](C)[C@@H](O[C@@H]2O[C@@H](C)[C@@H]([C@](C2)(C)OC)O)[C@H](C)[C@@H](O[C@@H]2O[C@H](C)C[C@@H]([C@H]2O)N(C)C)[C@](C[C@H]([C@@H]([C@@H]([C@H]([C@]1(C)O)O)C)N)C)(C)O,-6.10864527,2.2441,734.958
,C3931,XCRAFTGAMMSJLO-UHFFFAOYSA-N,COc1cc2c(cc1OC)CC[NH+](C2Cc1ccc(cc1)[N+](=O)[O-])C.[Cl-],-4.151959469,1.063,378.85
,C2195,XCSGPAVHZFQHGE-UHFFFAOYSA-N,COc1cc(ccc1Nc1c2ccccc2nc2c1cccc2)NS(=O)(=O)C,-6.502883221,5.7385,393.459
,C7981,XCSRVVVSIMSNMV-UHFFFAOYSA-N,OC(=O)C(CC(=O)O)(CC(=O)O)O.O=c1cc(n(n1c1ccccc1)C)C.Cn1cnc2c1c(=O)n(C)c(=O)n2C,-1.382748604,-0.7934,574.54
,C642,XCSUFOWHYVRFSD-UHFFFAOYSA-N,COCN(c1c(CC)cccc1CC)C(=O)CCl,-3.26,2.9871,269.767
,C8634,XCTYLCDETUVOIP-UHFFFAOYSA-N,CCNCCC(=O)c1ccccc1O.Cl,-0.761285467,2.7674,229.703
,C2807,XCWKEQWYRJVKOK-UHFFFAOYSA-N,ClCCN(c1cc(ccc1C)C(=O)OCCN(CC)CC)CCCl.Cl,-5.340520045,4.5796,411.794
,C2090,XCWPBWWTGHQKDR-UHFFFAOYSA-N,CCSc1ccc2c(c1)N(CCCN1CCN(CC1)C)c1c(S2)cccc1,-6.83537768,4.9796,399.616
,C5127,XCWPUUGSGHNIDZ-UHFFFAOYSA-N,Clc1ccc(c(c1)Cl)C1(OC1Cl)C(=O)N,-3.292161581,2.9694,266.508
,C9366,XCXKZBWAKKPFCJ-UHFFFAOYSA-N,S=C1SCCS1,0.314385747,1.7513,136.259
,C3803,XCXZAVJKBNSINK-UHFFFAOYSA-N,COc1cc2c(cc1OC)[nH]c(c2CCN1CCN(CC1)c1ccccc1)C,-4.24859969,3.8611,379.495
,C2304,XCYTWVOCYSIWKS-UHFFFAOYSA-N,CCCCCCCCCCCCCCC(=O)C,-6.204899204,5.6666,240.425
,C5408,XCYWUZHUTJDTGS-UHFFFAOYSA-N,CCN(c1c(C)n(C)c(=O)n(c1=O)c1ccccc1)CC,-3.098026809,1.6908,287.357
,C5779,XDASIVGQIOWAPZ-UHFFFAOYSA-N,ClCC[NH+](CCCl)CC[NH+](CCCl)CCCl.[Cl-].[Cl-],-2.864697085,-6.2806,383.013
,C8610,XDCFGLSPLPULQH-UHFFFAOYSA-N,COC1CCC=CO1,-0.783295238,1.283,114.142
,C8135,XDDCZCNSNJJQDF-UHFFFAOYSA-N,O=C(C1NCCNC1)Nc1ccccc1.Cl.Cl,-1.240201237,2.5211,278.178
,C8739,XDFDQLZAZMKFFJ-DNHMSYDNSA-N,OC(CO)CN1C(=O)COc2c1cc(Cl)cc2,-0.596816279,0.4836,257.67
,C5800,XDGIQCFWQNHSMV-UHFFFAOYSA-N,C=CCn1c(C)c(Br)c(=O)n(c1=O)c1ccccc1,-2.850642192,2.2561,321.169
,C4176,XDHCPAIEZGPQSB-XMMWENQYSA-N,OC(=O)C(CC(=O)O)(CC(=O)O)O.C=CCc1cc2C[C@H]3N(C)CC[C@@]4(c2cc1O)[C@H]3CCCC4,-3.986518984,2.4983,489.558
,C6938,XDIZFCKCCMUFFG-UHFFFAOYSA-N,Brc1ccc(cc1)P(=O)(O)O,-2.13169014,1.2521,236.988
,C3190,XDNBJTQLKCIJBV-SFHVURJKSA-N,OS(=O)(=O)NC1CCCCC1.CN(CC/C=C/1\c2ccccc2CN(c2c1cccc2)C)C,-4.877054713,6.268,471.655
,C2806,XDPCNPCKDGQBAN-BYPYZUCNSA-N,CCCC(=O)C1=C(O)C(=C(C(C1=O)(C)C)O)Cc1c(OC)cc(c(c1O)C(=O)CCC)O,-5.341039799,4.234,446.49
,C972,XDPCNPCKDGQBAN-UHFFFAOYSA-N,CCOP(=S)(Oc1ccc(cc1)[S@@](=O)C)OCC,-2.3,4.6166,308.354
,C1647,XDPKQGKEOCYMQC-UHFFFAOYSA-N,O[C@@H]1COCC1,1.05,-0.2324,88.1051
,C9930,XDPMKIBCTGOLAF-UHFFFAOYSA-M,OC1COCC1,1.0549945,-0.2324,88.1051
,C6692,XDROKJSWHURZGO-UHFFFAOYSA-N,O=C1CC(=O)N(N1c1ccccc1)c1ccccc1,-2.278999832,2.5015,252.268
,C9554,XDRYMKDFEDOLFX-UHFFFAOYSA-N,O1CCN(CC1)/C=C/C=C/C=[N+]1CCOCC1.[Cl-].O.O,0.510318475,-2.7259,308.802
,C6614,XDTLDKQRTDJPRA-BTJKTKAUSA-N,O=c1ccc2c(o1)c1ccoc1cc2,-2.335603961,2.5392,186.164
,C4063,XDTMQSROBMDMFD-UHFFFAOYSA-N,NC(=N)c1ccc(cc1)OCCCCCOc1ccc(cc1)C(=N)N,-4.067236478,4.4829,340.419
,C3747,XDTNOYLBDDCJSK-UHFFFAOYSA-N,OC(=O)/C=C\C(=O)O.CNCC1COC2(O1)c1ccccc1OCc1c2cccc1,-4.29417848,2.5176,413.421
,C692,XDVMCVGTDUKDHL-UHFFFAOYSA-N,C1CCCCC1,-3.0999999,2.3406,84.1595
,C5999,XDWLRMBWIWKFNC-HNQUOIGGSA-N,NC1=NC(N(C(=N1)N)OCc1ccc(c(c1)Cl)Cl)(C)C,-2.715325344,2.3158,316.186
,C9584,XDXDZDZNSLXDNA-TZNDIEGXSA-N,NCCSC(=N)N.Br.Br,0.55127821,2.9883,281.013
,C6123,XDXZMDODHZOHLT-UHFFFAOYSA-N,Nc1ccc(nn1)/C=C/c1ccc(o1)[N+](=O)[O-],-2.64943963,2.8348,232.196
,C3943,XDZZQMNDCFNREN-UHFFFAOYSA-N,O[C@H]1[C@@H](N)C[C@@H](O[C@H]1C)O[C@H]1C[C@@](O)(Cc2c1c(O)c1c(c2O)C(=O)c2c(C1=O)cccc2)C(=O)C,-4.14509917,1.7206,497.494
,C4085,XEABSBMNTNXEJM-UHFFFAOYSA-N,Brc1ccc(nc1)OCCCCCCN1CSCC1.Cl,-4.05544772,4.5295,381.759
,C9881,XEAQIWGXBXCYFX-GUOLPTJISA-N,CC(CS(=O)(=O)O)N,0.856457462,1.0025,139.173
,C7848,XEAVLJLNCQZBQI-UHFFFAOYSA-N,OC(=O)CC[Ge](=O)O[Ge](=O)CCC(=O)O,-1.493284048,-0.2102,339.419
,C6559,XEDCWWFPZMHXCM-UHFFFAOYSA-M,COC1=CC(=O)O[C@H](C1)/C=C/c1ccccc1,-2.366545098,2.5456,230.259
,C4787,XEDRZUZYWQWFNN-UHFFFAOYSA-N,COc1ccccc1C1CCC2N(C1)CCCC2,-3.551595161,3.365,245.36
,C7442,XEDWWPGWIXPVRQ-UHFFFAOYSA-N,CC[N+]1(C)CCCC(C1)OC(=O)C(c1ccccc1)(c1ccccc1)O.[Br-],-1.782344656,0.0574,434.367
,C3715,XEEDURHPFVXALT-UHFFFAOYSA-N,CC(CNc1nc(c(o1)c1ccccc1)c1ccccc1)O.Cl,-4.32924957,4.6763,330.809
,C5138,XEEHZVDPOLUQNX-WPZRWFQASA-N,O=C(c1ccc(c(c1O)O)O)c1cc(O)c(c(c1)O)O,-3.284514255,1.1512,278.214
,C7114,XEFOQDPAHAWQEH-UHFFFAOYSA-N,O=C1NC(=O)C(N1)(c1ccc(cc1)O)c1ccccc1,-2.028901626,2.1328,268.267
,C2341,XEFQLINVKFYRCS-UHFFFAOYSA-N,O[C@H]([C@H](C(=O)O)O)C(=O)O.Oc1ccc2c(c1)[C@]13CCCC[C@H]3[C@@H](C2)N(CC1)CCCCc1ccccc1,-6.121899577,3.2888,525.633
,C3985,XEIDPXZIMOWYQI-UHFFFAOYSA-N,CCCCCCCCCSCCN1CSCC1.Cl,-4.115716338,5.2164,311.978
,C341,XEKOWRVHYACXOJ-UHFFFAOYSA-N,Clc1ccc(c(c1)O)Oc1ccc(cc1Cl)Cl,-4.46,5.1447,289.542
,C8363,XEMDFXJDJFUOFL-UHFFFAOYSA-N,Nc1ccc2c(c1)CON(C2)C(=O)C,-1.016622326,1.5816,192.214
,C1556,XEMGXBYFCSCENA-NMMAEDQESA-N,CCOC(=O)C,-0.039999999,0.5694,88.1051
,C7476,XENUZQKXLSDMDY-UHFFFAOYSA-N,CCCCCC(NCCSS(=O)(=O)O)CC,-1.752819655,3.9426,269.425
,C2478,XEOKALCMOZKIBM-UHFFFAOYSA-N,COc1cc2c(cc1Br)C[C@H]1[C@@H]3[C@]2(CCCC3)CCN1C.Br,-5.866052747,5.0419,431.205
,C8158,XEOXEBNPBKUGJH-OCAPTIKFSA-N,OS(=O)(=O)SCCNCCCc1ccccc1,-1.2198259,3.2165,275.388
,C2462,XEPMSXZCQZXKRP-UHFFFAOYSA-N,CN(CCCN1c2ccc(cc2Sc2c1cc(Cl)c(c2)O)O)C,-5.894827561,4.3706,350.863
,C404,XESARGFCSKSFID-FLLFQEBCSA-N,O=CN[C@H](C(Cl)(Cl)Cl)n1ccn(cc1)[C@H](C(Cl)(Cl)Cl)NC=O,-4.1900001,5.135,430.93
,C1238,XEYBRNLFEZDVAW-CTYXUUPWSA-N,ClCCS(=O)(=O)CCl,-1.5,1.9171,177.05
,C9273,XEZNGIUYQVAUSS-UHFFFAOYSA-N,OC[C@H]1O[C@H]([C@@H]([C@@H]1O)O)c1[nH]nc(c1O)C(=O)N,0.253787814,-1.9315,259.216
,C899,XFCDHFGTGWBPIE-UHFFFAOYSA-N,CCCCC[C@H](/C=C/[C@@H]1[C@@H](O)CC(=O)[C@H]1C/C=C/CCCC(=O)O)O,-2.47,3.2511,352.465
,C8779,XFDJYSQDBULQSI-UHFFFAOYSA-N,O1CCOCCOCCOCCOCCOCC1,-0.547528954,0.0996,264.315
,C5618,XFGUWVXEXZICLY-UHFFFAOYSA-N,CC(Cc1ccccc1)NNC(C)C,-2.9659295,2.902,192.301
,C3189,XFHBFOSBGWDTRO-UHFFFAOYSA-M,CCN1CC(C(C1=O)(c1ccccc1)c1ccccc1)CCN1CCOCC1,-4.877986526,3.0491,378.507
,C8037,XFJUBSCJIVHSLU-UHFFFAOYSA-N,ONC(=O)c1cc(Cl)nc(c1)Cl,-1.32123436,1.8983,207.014
,C9575,XFKVYSOSXFBGIZ-UHFFFAOYSA-N,CC1OCC(O1)C[N+](C)(C)C.[I-],0.541904807,-2.542,287.138
,C6687,XFKXNUIIWKUVFV-UHFFFAOYSA-N,OC(C[NH+](C(C)C)C(C)C)COc1ccccc1C(=O)C.[Cl-],-2.280290121,-1.6654,329.862
,C9638,XFNAGAQPPRZSFP-UHFFFAOYSA-N,Cc1ccc(cc1O)[N+](C)(C)C.[Br-],0.608803706,-1.0987,246.144
,C6357,XFNJYAKDBJUJAJ-GSVOUGTGSA-N,OCC(c1ccc(cc1)C)C(=O)OC1CC2CCC(C1)N2C,-2.501560561,2.1772,303.396
,C9579,XFUAUNXVZYEABH-UHFFFAOYSA-N,O=NC=c1cc[nH]cc1,0.549375206,0.8002,122.125
,C1018,XFZHQCMTPGWYES-UHFFFAOYSA-L,BrC[C@H](Br)C,-2.1500001,2.1647,201.888
,C6750,XFZJGFIKQCCLGK-UHFFFAOYSA-M,OC1c2ccccc2CCc2c1cncc2.Cl,-2.247836542,3.0639,247.72
,C9226,XGCHAIDDPMFRLJ-UHFFFAOYSA-N,COC(=O)C1C[N+]2(CCOCC[N+]34CCC(CC3)C(C4)C(=O)OC)CCC1CC2.[I-].[I-],0.177593902,-5.0122,664.356