Name,Compound ID,InChIKey,SMILES,logS,logP,MW
,C50,TYBARJRCFHUHSN-DMJRSANLSA-N,c1ccc2c(c1)c1cccc3c1c1c2cccc1cc3,-7.8000002,5.7372,252.309
,C8494,TYDVXCIBGRTKRO-UHFFFAOYSA-N,CN(CCCCCCN(C)C)C,-0.902475434,1.67,172.311
,C7495,TYFLIJAGRULBIS-UHFFFAOYSA-N,OC[C@@]12[C@H](O)C[C@@H](C[C@@]2(O)CC[C@@H]2[C@@H]1[C@H](O)C[C@]1([C@]2(O)CC[C@@H]1C1=CC(=O)OC1)C)O[C@@H]1O[C@@H](C)[C@@H]([C@H]([C@H]1O)O)O.O.O.O.O.O.O.O.O,-1.738744203,-2.0294,728.775
,C6448,TYIYSVLVQMZJDR-UHFFFAOYSA-N,CN(S(=O)(=O)c1ccc(cc1)NS(=O)(=O)c1ccc(cc1)N)C,-2.446946695,4.1357,355.432
,C2797,TYMLOMAKGOJONV-UHFFFAOYSA-N,CCN(CCOC(=O)C1c2ccccc2c2c1cccc2)CC.Cl,-5.35993218,4.4859,345.863
,C6838,TYMZLAZEAVFQJY-UHFFFAOYSA-L,CCCN1C(=O)Cc2c(S1(=O)=O)cccc2,-2.183023082,2.1887,239.291
,C936,TYNLGDBUJLVSMA-UHFFFAOYSA-N,Nc1ccc(cc1)[N+](=O)[O-],-2.3699999,2.2814,138.124
,C6393,TYNQJNYAIIACFM-UHFFFAOYSA-L,NC1CCC1.NC1CCC1.[Cl-].[Cl-].[Pt+2],-2.48347615,-3.5987,408.226
,C4616,TYQXKHPOXXXCTP-CSLYCKPJSA-N,CC(=O)Oc1cc(cc2c1C(=O)c1c(C2=O)cccc1OC(=O)C)C(=O)O,-3.659109436,2.0108,368.294
,C9380,TYUMAYSMJLPFAN-UHFFFAOYSA-N,C[N+](CC[N+]1(C)Cc2c(C1)cccc2)(C)C.[I-].[I-],0.324066833,-4.1802,474.163
,C2563,TYYIOZHLPIBQCJ-UHFFFAOYSA-N,CCC(=O)O[C@H]1[C@@H](O[C@@H](C[C@@H]1N(C)C)C)O[C@@H]1[C@@H](C)[C@H](O[C@@H]2O[C@@H](C)[C@@H]([C@](C2)(C)OC)O)[C@@H](C)C(=O)O[C@H](CC)[C@@]([C@@H]([C@H](C(=O)[C@@H](C[C@@]1(C)O)C)C)O)(C)O,-5.719226289,2.7465,789.99
,C1911,TYZHJGCYLYXPSB-UHFFFAOYSA-N,COc1cc(O)c2c(c1)oc(cc2=O)c1ccc(c(c1)c1c(O)cc(c2c1oc(cc2=O)c1ccc(cc1)O)O)O,-7.788082722,5.437,552.484
,C3392,TZBJGXHYKVUXJN-UHFFFAOYSA-N,ClC(C(c1ccc(cc1)N)c1ccc(cc1)N)(Cl)Cl,-4.637035902,5.5155,315.625
,C3639,TZEGEDDAQGVPCE-UEIGIMKUSA-M,O=C(NS(=O)(=O)c1ccc(cc1)Cl)NC1CCCCC1,-4.396981438,4.5232,316.804
,C3567,TZFNLOMSOLWIDK-JTQLQIEISA-N,Oc1ccc(cc1)c1coc2c(c1=O)c(O)cc(c2)O,-4.469096211,2.5768,270.237
,C8612,TZFWDZFKRBELIQ-UHFFFAOYSA-N,O=C(Oc1cccc(c1)[N+](C)(C)C)/C=C/c1ccccc1.[Br-],-0.783054444,0.5061,362.261
,C9133,TZGOOZDYIXRJPG-UHFFFAOYSA-N,NN[C@](C(=O)O)(Cc1ccc(c(c1)O)O)C,0.033724848,1.0381,226.229
,C766,TZIHFWKZFHZASV-UHFFFAOYSA-N,Clc1ccc2c(c1)[nH]c(=O)o2,-2.8299999,1.7745,169.565
,C4194,TZKGRFZSJHYEOY-UHFFFAOYSA-N,OCCN1CCN(CC1)CC(=O)N1c2ccccc2CCc2c1cccc2.Cl.Cl,-3.970690778,3.6046,438.391
,C1613,TZLVOSZIPXICJI-UHFFFAOYSA-N,COC=O,0.57999998,0.4251,60.052
,C8079,TZMHVHLTPWKZCI-UHFFFAOYSA-N,FCCCCC#N,-1.288850896,1.64978,101.122
,C2093,TZMUWWOOCIMOBN-UHFFFAOYSA-N,ClCCN(c1ccc(cc1)OC(=O)c1c(C)cccc1C)CCCl,-6.829816302,4.8066,366.282
,C28,TZRUXHZIOJMWKW-UHFFFAOYSA-N,Clc1c(Cl)cc(c(c1Cl)c1ccc(c(c1Cl)Cl)Cl)Cl,-8.3000002,7.9274,395.323
,C5341,TZRXHJWUDPFEEY-UHFFFAOYSA-N,N/C(=N\CCCc1c[nH]c2c1cccc2)/CSS(=O)(=O)O,-3.140352866,3.7748,327.422
,C3960,TZTWZRVTCGXBEZ-UHFFFAOYSA-N,CN(CCC1(OC(c2c1cccc2)(C)C)c1ccccc1)C.Cl,-4.133596489,4.9492,331.88
,C4306,TZWJIEYUCJKWND-UHFFFAOYSA-N,[O-][N+](=O)OCC(CO[N+](=O)[O-])(CO[N+](=O)[O-])CO[N+](=O)[O-],-3.866404138,0.8988,316.137
,C5159,TZWQBGUNOCNPLF-UHFFFAOYSA-N,Oc1cccc(c1)C(C1CCCCN1C)c1ccccc1.Cl,-3.271782845,4.7483,317.853
,C4228,TZWVMGRCJXLVLO-UHFFFAOYSA-N,OC(=O)C(c1ccccc1)NCc1ccccc1C,-3.941696881,3.3014,255.312
,C2129,TZYLXYZBEHLNSG-UHFFFAOYSA-N,Brc1ccc(nc1)SCCCCCCCCCCN1CSCC1.Cl.Cl,-6.728166956,7.6052,490.392
,C3198,TZYNTOLBNMSWOH-UHFFFAOYSA-N,CC1CCCCN1CCCOC(=O)c1ccc(cc1)C(C)C,-4.871421268,4.1692,303.439
,C1926,TZYQTWHRLVDYPL-UHFFFAOYSA-N,BrCCN(c1ccc(cc1)OC(=O)c1c(C)cccc1C)CCBr,-7.628808935,5.1188,455.184
,C4878,TZYRSLHNPKPEFV-UHFFFAOYSA-N,C1CCc2c(N(C1)CC1=NCCN1)cccc2,-3.476793755,1.6604,229.321
,C1615,TZZYWZRIMDHLAL-UHFFFAOYSA-N,O=C1CC=NC=N1,0.58999997,-1.113,96.0874
,C1338,UAAJQWHHGULTSL-UHFFFAOYSA-N,CCC(CO)CC,-1.17,1.4149,102.175
,C2336,UABRYPURASNHRO-UHFFFAOYSA-N,Brc1ccc(nc1)OCCCCCCCCCCN1CSCC1.Cl,-6.13483519,6.0899,437.866
,C4563,UACOQEQOBAQRDQ-UHFFFAOYSA-N,CCOC(=O)c1ccc(cc1)NCCCNCCSS(=O)(=O)O,-3.687685964,3.3356,362.465
,C8903,UACSYZPPUXXDTL-UHFFFAOYSA-N,C[Sn](C)C.O,-0.369803817,1.3063,181.82
,C6200,UADGDKCDJALXDM-UHFFFAOYSA-N,CCN(S(=O)(=O)c1ccc(cc1)C(=O)O)CC,-2.597065714,2.4961,257.306
,C5312,UAEPNZWRGJTJPN-UHFFFAOYSA-N,C=CCOc1ccccc1C(=O)N(CC)CC,-3.155747611,2.7334,233.306
,C6519,UAIFZXAZKMISDC-HTXNQAPBSA-N,CC(OC(=O)c1ccccc1S(=O)(=O)N)C,-2.395762179,2.6803,243.28
,C478,UAJTZZNRJCKXJN-UHFFFAOYSA-M,CC1CCCCC1,-3.8499999,2.5866,98.1861
,C2815,UAPITOJWKANGFK-UHFFFAOYSA-N,CCCCC/C(=C\c1ccccc1)/C(=O)NCCN(CC)CC,-5.333041299,4.4992,316.481
,C3139,UATJOMSPNYCXIX-UHFFFAOYSA-N,CCCCCCCCCCCCOC(=O)CS(=O)(=O)[O-].[Na+],-4.935860994,4.0765,330.416
,C3903,UAUQNCHZCQYABX-UHFFFAOYSA-N,OC(=O)C(=O)[O-].CCC1Oc2ccc(cc2N(C1=O)CC([NH+]1CCCC1)C)Cl,-4.173330403,1.3663,412.865
,C751,UAYKDHALAVBVGN-UHFFFAOYSA-N,[O-][N+](=O)c1cc(cc(c1)[N+](=O)[O-])[N+](=O)[O-],-2.8900001,2.9808,213.105
,C6227,UAYMEORMNOUCCG-UHFFFAOYSA-N,CC(Nc1c(C)n(c2ccccc2)c(=O)n(c1=O)C)C,-2.574565455,1.7379,273.33
,C5174,UBAJTZKNDCEGKL-UHFFFAOYSA-N,CCCN(CCC)CCOCCCOC(=O)c1ccc(cc1)N,-3.26294838,3.5355,322.442
,C5983,UBAYZMJYXBTDBB-UHFFFAOYSA-N,CCC1(C(=O)NC(=NC1=O)OC(C)C)c1ccccc1,-2.729751607,1.5362,274.315
,C3042,UBBHIBDVUFKRET-UHFFFAOYSA-N,O=C(N1c2ccccc2Sc2c1cccc2)CN1CCN(CC1)Cc1ccc2c(c1)OCO2,-5.05564226,4.3032,459.56
,C9002,UBCDCHSRDTZLLP-UHFFFAOYSA-N,CN(C(=O)c1ccccc1O)C,-0.200955672,1.094,165.189
,C5352,UBCKGWBNUIFUST-BJMVGYQFSA-N,OC(=O)c1ccccc1Nc1nc2c(o1)cccc2,-3.133410814,3.3426,254.241
,C2050,UBDWKOZBPSKHMO-UHFFFAOYSA-N,CCCCOc1ccc(cc1)OCC(=O)N(c1c(C)cccc1C)CCN(C)C.Cl,-7.012153881,5.2579,434.999
,C332,UBEHJDYYBJLBAZ-HDICACEKSA-N,Cl/C=C(\c1cc(Cl)c(cc1Cl)Cl)/OP(=O)(OC)OC,-4.52,5.6015,365.962
,C1759,UBGGREWUFINDKK-UHFFFAOYSA-N,CCC(C(c1ccc(cc1)OCCN(CC)CC)CC)c1ccc(cc1)OCCN(CC)CC,-10.25096331,6.8152,468.714
,C242,UBGHFEFTDIQMFK-UHFFFAOYSA-N,C=C[C@H]([C@@H](c1ccc(cc1)O)C=C)c1ccc(cc1)O,-4.9499998,4.3372,266.334
,C7964,UBMIUBZFZPESPD-UHFFFAOYSA-N,CCC(=O)N1C(C)CN(CC1(C)C)C,-1.398619433,1.2133,198.305
,C2001,UBNYRXMKIIGMKK-RMKNXTFCSA-N,Clc1ccccc1CNCC1CCC21CCC2CNCc1ccccc1Cl.Cl.Cl,-7.159373033,8.065,476.31
,C7058,UBOXGVDOUJQMTN-UHFFFAOYSA-N,CC(C(c1ccccc1)O)[NH2+]Cc1ccccc1.[Cl-],-2.056329893,-1.1239,277.789
,C3320,UBPJBMCYEHGSJS-UHFFFAOYSA-N,COc1ccc(cc1)/C=C/C(=O)OCCC(C)C,-4.708378946,3.2977,248.318
,C1244,UBQKCCHYAOITMY-UHFFFAOYSA-N,ClCC(Cl)Cl,-1.48,2.0289,133.404
,C3874,UBQNRHZMVUUOMG-UHFFFAOYSA-N,Fc1cccc(c1)C(=O)C(c1cccc(c1)F)CN1CCCC1.Cl,-4.190297124,4.767,351.818
,C1645,UBQYURCVBFRUQT-UHFFFAOYSA-N,Oc1ccccn1,1.02,0.7872,95.0993
,C6485,UBRIHZOFEJHMIT-UHFFFAOYSA-N,NS(=O)(=O)Cc1noc2c1cccc2,-2.423702483,2.3974,212.226
,C7593,UBSPKGKFFQKZJB-UHFFFAOYSA-N,NCCCCCN(C(=O)CCC(=O)NCCCCCN(C(=O)CCC(=O)NCCCCCN(C(=O)C)O)O)O,-1.66954388,2.4042,560.684
,C6115,UBUCNCOMADRQHX-UHFFFAOYSA-N,CCCCOc1ccc(cc1)N,-2.653438583,3.0289,165.232
,C8316,UBWNEPDEJMUZTC-UHFFFAOYSA-N,COC(=O)CCC[N+](=O)[O-],-1.081341404,0.7395,147.129
,C507,UCAGLBKTLXCODC-UHFFFAOYSA-N,O=NN(c1ccccc1)c1ccccc1,-3.75,3.5061,198.221
,C4274,UCBSMOSFCAQPAI-UHFFFAOYSA-N,CCCCCCCCCCCCNCCSS(=O)(=O)O,-3.901925519,5.5046,325.531
,C8302,UCCUXODGPMAHRL-UHFFFAOYSA-N,OC(=O)c1ccc(cc1)S(=O)(=O)N,-1.095715812,1.8133,201.2
,C5228,UCDKONUHZNTQPY-UHFFFAOYSA-N,Clc1ccc2c(c1)n(c1ccccc1)c(=O)[nH]2,-3.224242048,2.9722,244.676
,C323,UCGUPPBDCWQZJE-UHFFFAOYSA-N,Brc1ccc(cc1)I,-4.5599999,3.0537,282.904
,C3179,UCIDKFGCIPMMOX-UHFFFAOYSA-N,Brc1cc(CN(C2CCCCC2)C)c(c(c1)Br)N.Cl,-4.887169116,5.9415,412.591
,C7380,UCJMBBZBOFQKOW-UHFFFAOYSA-N,C#CC1=CC(N(C(C1)(C)C)C)(C)C,-1.828730941,2.3766,177.286
,C4925,UCKYOOZPSJFJIZ-XVKVHKPRSA-N,CCCc1cc(OCCCNCCSS(=O)(=O)O)nc2c1cccc2,-3.438778474,4.5535,384.513
,C8564,UCLGZUJDUNXHRN-UHFFFAOYSA-N,Cc1cc(C)c(c(c1)[N+](C)(C)C)O.[Br-],-0.829804817,-0.7903,260.171
,C9137,UCLKLGIYGBLTSM-UHFFFAOYSA-N,OC[C@H]1O[C@H]([C@@H]([C@@H]1O)O)N1CCC(NC1=O)O,0.046046067,-2.5742,248.233
,C2689,UCMKQLSOWSNOED-UHFFFAOYSA-N,C1CCC2(CN1)c1ccccc1CCc1c2cccc1.Cl,-5.514997007,4.5855,299.838
,C53,UCNVFOCBFJOQAL-UHFFFAOYSA-N,Clc1ccc(c(c1)c1cc(Cl)c(c(c1Cl)Cl)Cl)Cl,-7.6799998,7.274,360.878
,C5368,UCPVOMHRDXMAIZ-UHFFFAOYSA-M,NC(=N)c1ccc(cc1)OCCCOc1ccc(cc1)C(=N)N.Cl.Cl,-3.115964594,5.3067,385.288
,C87,UCQUAMAQHHEXGD-UHFFFAOYSA-N,ClC(=C(c1ccc(cc1)Cl)c1ccc(cc1)Cl)Cl,-6.9000001,6.1879,318.025
,C9251,UCRJJHVREFVPPM-UHFFFAOYSA-N,CC(=O)Nc1c(I)cc(c(c1I)C(=O)[O-])I.[Na+],0.211487859,1.8953,578.844
,C8925,UCSJYZPVAKXKNQ-HZYVHMACSA-N,CC(=O)c1ccc(c(c1)O)O,-0.340909632,1.3004,152.147
,C7356,UCTWMZQNUQWSLP-SECBINFHSA-N,[O-][N+](=O)c1ncc(n1C=C)C,-1.840699233,1.7234,153.139
,C9266,UCTWMZQNUQWSLP-UHFFFAOYSA-N,OC[C@@H]1O[C@@H](O[C@H]2[C@H](O[C@H]3[C@H](O)[C@@H](O)[C@@H]([C@H]([C@@H]3N=C(N)N)O)N=C(N)N)O[C@H]([C@]2(O)C=O)C)[C@H]([C@@H]([C@H]1O)O)NC,0.235390522,-4.969,581.574
,C9793,UCTWMZQNUQWSLP-VIFPVBQESA-N,CNC[C@H](c1ccc(c(c1)O)O)O,0.737057937,0.7415,183.204
,C9794,UCUOKZUJHTYPJT-UHFFFAOYSA-N,CNCC(c1ccc(c(c1)O)O)O,0.737057937,0.7415,183.204
,C5562,UDCIYVVYDCXLSX-KAMYIIQDSA-N,CNC[C@@H](c1ccc(c(c1)O)O)O,-3.007669558,0.7415,183.204
,C3828,UDDCJZOJJDNAFF-UHFFFAOYSA-L,O=C(OC1N=C(c2ccccc2)c2c(NC1=O)ccc(c2)Cl)CCC(=O)O,-4.227637498,2.4372,386.786
,C5319,UDDMNBYVRLYNKY-UHFFFAOYSA-N,OCC/C(=C(/N(Cc1cnc(nc1N)C)C=O)\C)/SSCCC,-3.15135254,3.948,356.507
,C2728,UDEWPOVQBGFNGE-UHFFFAOYSA-N,C[N+]1(CCCCCC[N+]2(C)CCCCC2)CCCCC1.[I-].[I-],-5.462256321,-2.2666,536.317
,C326,UDHXJZHVNHGCEC-UHFFFAOYSA-N,CCn1c2nc(C)cc(c2[nH]c(=O)c2c1nccc2)C,-4.5500002,2.4717,268.314
,C823,UDIIBEDMEYAVNG-ZKFPOVNWSA-N,CCCOC(=O)c1ccccc1,-2.6700001,2.2534,164.201
,C4752,UDKCHVLMFQVBAA-UHFFFAOYSA-M,Clc1ccc(cc1)C(C(=O)C1C(=O)c2c(C1=O)cccc2)c1ccccc1,-3.573822768,4.7364,374.816
,C9269,UDKVBVICMUEIKS-UHFFFAOYSA-N,NC[C@@H](C(=O)N[C@@H]1C[C@H](N)[C@H]([C@@H]([C@H]1O[C@H]1OC[C@]([C@@H]([C@H]1O)NC)(C)O)O)O[C@H]1O[C@H](CN)[C@H]([C@@H]([C@H]1O)O)O)O,0.24442315,-4.6417,569.603
,C9654,UDMBCSSLTHHNCD-UHTZMRCNSA-N,OC(=O)c1ccccc1[O-].OCC[N+](C)(C)C,0.617466076,1.2135,241.284
,C1870,UDVZFCGWSYNODA-UHFFFAOYSA-N,CCN(CCCC(Nc1c2cc(OC)ccc2nc2c1ccc(c2)Cl)C)CC.Cl.Cl,-8.15755413,7.6494,472.879
,C7677,UDYNXYGECPZPSR-UHFFFAOYSA-N,O[C@H]1[C@H](O)[C@H](O[C@H]1n1cnc2c1ncnc2N)COP(=O)(O)O,-1.610680176,-1.2818,347.221
,C5496,UEDJPYLQEIVDLD-UHFFFAOYSA-N,CCCC(COC(=O)N)(COC(=O)NCC=C)C,-3.042938795,2.8915,258.314
,C3598,UEDPIABBBXACGR-SFQUDFHCSA-N,O=C(Nc1c(C)cccc1C)OC1CCC[NH+](C1)C(C)C.[Cl-],-4.446182545,0.9538,326.861
,C7404,UEECHQPWQHYEDE-UHFFFAOYSA-N,OCC(COc1ccccc1Cl)O,-1.814790605,1.072,202.635
,C4074,UEEYLGDMBFXUIB-UHFFFAOYSA-N,CCOC(=O)c1ccc(cc1)/N=C/c1ccccc1,-4.061214206,3.6139,253.296
,C2836,UEGLUMKTWJPXEP-GBKTVRHWSA-N,CC(COCC(N1CCCC1)CN(c1ccccc1)Cc1ccccc1)C.Cl.O,-5.300022335,5.5058,421.016
,C8308,UEGLUMKTWJPXEP-OYXUYBEVSA-N,CN1CC2CCC(C1C)C2,-1.086865401,1.6745,139.238
,C2039,UEHLXXJAWYWUGI-UHFFFAOYSA-M,OS(=O)(=O)O.Clc1ccc2c(c1)/C(=C\CCN1CCCC1)/c1c(S2)cccc1,-7.040277695,6.0881,439.976
,C2038,UEHZKEABUOAZSH-UHFFFAOYSA-N,OS(=O)(=O)O.Clc1ccc2c(c1)/C(=C/CCN1CCCC1)/c1c(S2)cccc1,-7.040277695,6.0881,439.976
,C5366,UEIWUZLCFPJBJG-UHFFFAOYSA-N,[O-][N+](=O)c1ccc(c2c1[Hg]O2)C,-3.12409127,1.4416,351.709
,C8150,UEJJHQNACJXSKW-SECBINFHSA-N,O=C1Nc2c(C1=O)cccc2C,-1.23090728,1.2678,161.157
,C3100,UEJJHQNACJXSKW-UHFFFAOYSA-N,OC(=O)C(=O)[O-].COc1ccc2c(c1)c1ccccc1n2CCC[NH+](C)C,-4.990109175,0.1586,372.415
,C821,UEJSSZHHYBHCEL-UHFFFAOYSA-N,O=C1CC[C@H](C(=O)N1)N1C(=O)c2c(C1=O)cccc2,-2.6800001,0.3545,258.229
,C1685,UEJUHUJBJZBBLW-UHFFFAOYSA-N,O=C1CCC(C(=O)N1)N1C(=O)c2c(C1=O)cccc2	,-3.70 ,0.3545,258.229
,C8285,UEKGKTSCDCCRKX-UHFFFAOYSA-N,Nc1ccc(cc1)S(=O)(=O)[N-]c1ncccn1.[Ag+],-1.104127298,3.1149,357.137
,C6324,UEMGWPRHOOEKTA-UHFFFAOYSA-N,N/C(=N\CCCOc1ccccc1)/CSS(=O)(=O)O,-2.52104535,3.1298,304.386
,C5201,UENZAQFJJDOROP-UHFFFAOYSA-M,Cc1n(C)c(=O)n(c(=O)c1Br)C1CCCC1,-3.238011335,1.733,287.153
,C1066,UEYIAABRKWHXJV-UHFFFAOYSA-M,Fc1cccc(c1)F,-2,1.9648,114.093
,C3117,UEYYGXZIKYKIMT-UHFFFAOYSA-N,[O-]C(=O)C(c1ccc2c(c1)nc(o2)c1ccc(cc1)Br)C.[Na+],-4.963978957,3.1107,368.157
,C8502,UFBJCMHMOXMLKC-UHFFFAOYSA-N,NC(=O)CNc1ccc(cc1)[As](=O)(O)[O-].[Na+],-0.893012288,-0.6437,296.087
,C4763,UFDCSHQNNVQXAS-UHFFFAOYSA-N,OCC(COc1c(Cl)cc(cc1Cl)Cl)O,-3.56574228,2.3788,271.525
,C7400,UFDHNJJHPSGMFX-UHFFFAOYSA-N,[O-][N+](=O)c1ccc(c(c1)[N+](=O)[O-])O,-1.819466074,2.255,184.106
,C1987,UFDPCEODINHIQK-UHFFFAOYSA-N,CSc1ccc2c(c1)N(CCC1CCCCN1)c1c(S2)cccc1,-7.227833101,5.9372,356.548
,C8050,UFFFQSODDRXNMI-UHFFFAOYSA-N,O=C1CC(CC(=O)N1)CC(C1CC(C)(OC(=O)C)CC(C1=O)C)O,-1.315852635,1.056,339.384
,C5317,UFGACSXJDNIRCR-MIXIOINYSA-N,O=C1CCCc2c(N1CCN1CCCC1)cccc2,-3.152162276,2.4546,258.359
,C1949,UFGACSXJDNIRCR-VXUSHFPBSA-N,CCCCOc1ccc(cc1)OCC(=O)N(c1cc(OCC)ccc1OCC)CCN(CC)CC.Cl,-7.514473886,6.2187,523.104
,C5488,UFIVBRCCIRTJTN-UHFFFAOYSA-N,COc1ccc2c(c1)[C@]13CCCC[C@H]3[C@@H](C2O)N(CC1)C.Cl,-3.047960641,3.6142,323.858
,C5487,UFKRTEWFEYWIHD-UHFFFAOYSA-N,COc1ccc2c(c1)[C@@]13CCCC[C@@H]3[C@H](C2O)N(CC1)C.Cl,-3.047960641,3.6142,323.858
,C2256,UFLGIAIHIAPJJC-UHFFFAOYSA-N,N#CC(c1ccccc1)(c1ccccc1)CCN1CCC(CC1)(C(=O)O)c1ccccc1,-6.33169643,4.94268,424.534
,C7416,UFMAXJGHHZKXIO-UHFFFAOYSA-N,N#Cc1ccc(cc1)NC(=O)C,-1.805096756,1.58968,160.173
,C832,UFNIBRDIUNVOMX-UHFFFAOYSA-N,CN(CCN(c1ccccn1)Cc1ccccc1)C,-2.6400001,2.6498,255.358
,C4320,UFNLPKGIMRMNLG-UHFFFAOYSA-N,CC1CCCCN1CCCCOC(=O)c1ccccc1,-3.86131211,3.4359,275.386
,C198,UFNQVVBSSBHLEA-UHFFFAOYSA-N,Clc1ccc(cc1)c1ccccc1Cl,-5.2800002,4.6604,223.098
,C6057,UFSBFMDTWVPCIA-UHFFFAOYSA-N,ClCCSCC(=O)NCCNC(=O)CSCCCl,-2.680207845,1.9446,333.298
,C5593,UFULAYFCSOUIOV-UHFFFAOYSA-N,C=CCNC(=O)OCC(C(C)C)(COC(=O)N)C,-2.980790889,2.7474,258.314
,C3329,UFUVLHLTWXBHGZ-MGZQPHGTSA-N,CCN(CCOC(=O)C(c1ccccc1)(c1ccccc1)Cl)CC.Cl,-4.695378331,4.856,382.324
,C9844,UFWIBTONFRDIAS-UHFFFAOYSA-N,NCCS,0.798881468,0.5752,77.1487
,C4421,UFWWXJRCWHOHOQ-UHFFFAOYSA-N,CCC[C@H]1CN([C@@H](C1)C(=O)N[C@@H]([C@H]1O[C@H](SC)[C@@H]([C@H]([C@H]1O)O)OP(=O)(O)O)[C@@H](Cl)C)C,-3.787329757,0.8353,504.963
,C548,UFXKNBSRFXTFIU-UHFFFAOYSA-N,c1ccc2c(c1)cccc2,-3.5999999,2.8398,128.171
,C2352,UGFMJBRXTRUGJC-UHFFFAOYSA-N,CC1CCCCN1CCCOC(=O)c1ccc(cc1)OC1CCCCC1.Cl,-6.103505485,5.5593,395.963
,C3880,UGJMXCAKCUNAIE-UHFFFAOYSA-N,ClCC[NH+](C(c1ccccc1)c1ccccc1)CC.[Cl-],-4.186377204,-0.0764,310.261
,C7719,UGNWTBMOAKPKBL-UHFFFAOYSA-N,CN1C(=O)C(c2ccccc2)C(=O)N(C1=O)C,-1.584898214,0.6964,232.235
,C7722,UGQMRVRMYYASKQ-DEGSGYPDSA-N,NCC1(CCCCC1)CC(=O)O,-1.581262189,2.0706,171.237
,C5577,UGQMRVRMYYASKQ-KQYNXXCUSA-N,ClC1=C(Cl)C(=O)C(=C(C1=O)Cl)Cl,-2.992754934,2.5166,245.875
,C1323,UGSLDMJXBQKDCT-UHFFFAOYSA-N,OC[C@@H]1O[C@@H]([C@H]([C@H]1O)O)n1cnc2c1ncnc2O,-1.23,-1.8566,268.226
,C8152,UGTJLJZQQFGTJD-UHFFFAOYSA-N,OC[C@H]1O[C@H]([C@@H]([C@@H]1O)O)n1cnc2c1[nH]cnc2=O,-1.229848644,-2.2689,268.226
,C7950,UGVJFCFVDRFHFP-UHFFFAOYSA-N,O=C(C1CCC(=O)N1)NC1CC1c1ccccc1,-1.418963137,1.657,244.289
,C4738,UGWULZWUXSCWPX-UHFFFAOYSA-N,N#CC(=NNc1cccc(c1)Cl)C#N,-3.580159437,2.22806,204.616
,C4648,UHBGYFCCKRAEHA-UHFFFAOYSA-N,CCC1(c2ccccc2)C(=O)N(CC)C(=O)N(C1=O)CC,-3.638401879,2.0408,288.342
,C8382,UHCLFIWDCYOTOL-UHFFFAOYSA-N,O=C1CNC(=S)N1,-0.993092336,-0.3517,116.142
,C8196,UHDGCWIWMRVCDJ-CCXZUQQUSA-N,NC(=O)c1ccc(cc1)C,-1.195713015,1.7942,135.163
,C57,UHDGCWIWMRVCDJ-XVFCMESISA-N,Clc1ccc(c(c1)c1c(Cl)c(Cl)cc(c1Cl)Cl)Cl,-7.4200001,7.274,360.878
,C9649,UHDKXFCUGVGVDP-UHFFFAOYSA-N,OC[C@H]1O[C@H]([C@H]([C@@H]1O)O)n1ccc(nc1=O)N,0.613872211,-1.9818,243.217
,C9035,UHHYOKRQTQBKSB-UHFFFAOYSA-N,OC[C@H]1O[C@H]([C@@H]([C@@H]1O)O)n1ccc(nc1=O)N,-0.141225719,-1.9818,243.217
,C7800,UHMWWIKRVZTBBR-UHFFFAOYSA-N,CCNC(=O)c1ccccc1O,-1.527792931,1.5328,165.189
,C967,UHOAUPKGWPQNDM-UHFFFAOYSA-N,Fc1cc(F)c(c(c1)F)F,-2.3099999,2.243,150.074
,C4536,UHOVQNZJYSORNB-UHFFFAOYSA-N,FCC(C(Cl)(F)F)(F)F,-3.70023743,2.4228,168.493
,C8907,UHQRXMSDIYLZDO-UHFFFAOYSA-N,S=c1ccccn1C,-0.361967271,1.7546,125.191
,C1181,UHWFVIPXDFZTFA-UHFFFAOYSA-N,c1ccccc1,-1.64,1.6866,78.1118
,C4253,UHXNHWOEFZXDCC-UHFFFAOYSA-N,OC(=O)C(=O)O.CNCCC1(OC(c2c1cccc2)(C)C)c1ccccc1,-3.920545639,3.3515,371.427
,C3621,UHYJMNVCANOFPF-UHFFFAOYSA-N,C=CCOc1cc(Cl)ccc1C(=O)NCCN(CC)CC,-4.416964775,3.3673,310.819
,C7282,UIAGMCDKSXEBJQ-UHFFFAOYSA-N,CCCCN(CC1OC(=O)c2c1c(O)c(c(c2)O)O)CCCC,-1.905499204,2.9171,323.384
,C6142,UIBCAPLKHMYITB-UHFFFAOYSA-N,CCCCCOc1ccccc1C(=O)N,-2.632595582,3.0548,207.269
,C3816,UICBCXONCUFSOI-UHFFFAOYSA-N,COCCOC(=O)C1=C(C)NC(=C(C1c1cccc(c1)[N+](=O)[O-])C(=O)OC(C)C)C,-4.236927688,3.8228,418.44
,C4929,UIEGYKVRCKDVKQ-LREBCSMRSA-N,CCN(CCn1cc(c2c1cccc2)C1CCCN1C)CC.Cl.Cl,-3.437445095,5.2917,372.376
,C8471,UIFFUZWRFRDZJC-UHFFFAOYSA-N,CC(=O)NNc1ccccc1,-0.926194989,1.6135,150.178
,C9658,UIFFUZWRFRDZJC-WTGSLCBHSA-N,O[C@H]([C@H](C(=O)O)O)C(=O)O.OCCN(C)C,0.621195252,-2.5823,239.223
,C1803,UIGLAZDLBZDVBL-UHFFFAOYSA-N,CCCCCCC1C(=O)OC(C)C(C(=O)OC(C1OC(=O)CC(C)C)C)NC(=O)c1cccc(c1O)NC=O,-9.117690251,4.5802,548.625
,C2104,UIGROZQTAVYLMH-UHFFFAOYSA-N,CCCCCC[C@H]1C(=O)O[C@H](C)[C@@H](C(=O)O[C@H]([C@H]1OC(=O)CC(C)C)C)NC(=O)c1cccc(c1O)NC=O,-6.78989192,4.5802,548.625
,C8833,UIHCLUNTQKBZGK-RXMQYKEDSA-N,OC(c1ccccc1)C#C,-0.46204653,1.3532,132.159
,C8383,UIIMQLPOAXFKFW-UHFFFAOYSA-N,CN1CCOC(C1)(O)c1ccccc1.Cl,-0.993067687,1.5336,229.703
,C1458,UIJGNTRUPZPVNG-UHFFFAOYSA-N,CC[C@H](C(=O)C)C,-0.67000002,1.6215,100.159
,C6686,UIJIQXGRFSPYQW-UHFFFAOYSA-N,CC(c1ccccc1)CCC(=O)O,-2.283248112,2.6549,178.228
,C7685,UIKROCXWUNQSPJ-VIFPVBQESA-N,SC(=O)c1ccccc1,-1.606177786,1.7566,138.187
,C6616,UILJIUFPKKZQQS-UHFFFAOYSA-N,CSc1ncnc2c1[nH]cn2,-2.334709906,1.0748,166.204
,C9807,UILOTUUZKGTYFQ-UHFFFAOYSA-N,O=C1CC[C@H](N1C)c1cccnc1,0.753947292,1.3128,176.215
,C9148,UILPJVPSNHJFIK-UHFFFAOYSA-N,CN1C(C)(C)CNCC1(C)C,0.063794653,1.3453,156.268
,C9633,UIMBFBNFXCWIGG-UHFFFAOYSA-L,CC(=O)O.NCc1ccc(cc1)S(=O)(=O)N,0.608569074,2.365,246.283
,C7803,UIPBKZGYQDPIPY-UHFFFAOYSA-N,COc1ccc(c(c1)O)C(=O)C,-1.524649022,1.6034,166.174
,C9434,UIQMVEYFGZJHCZ-SSTWWWIQSA-N,CC[N+](CCOCC[N+]1(CC)CCCC1)(CC)CC.[Br-].[Br-],0.364229834,-3.5232,432.278
,C4068,UIUJIQZEACWQSV-UHFFFAOYSA-N,NCCCC(C(CCCCCCCCN=C(N)N)O)NC(=O)CCCCCCCCN=C(N)N,-4.065367437,5.4716,484.722
,C7073,UIYBGSIWFJRRAZ-UHFFFAOYSA-N,C=CCN1CC[C@@]23[C@@H]4[C@H]1Cc1c3c(O[C@H]2[C@H](C=C4)O)c(cc1)O,-2.051282964,1.6922,311.375
,C9850,UJAOSPFULOFZRR-UHFFFAOYSA-N,O=CCCC(=O)O,0.806598799,0.0501,102.089
,C5256,UJBOOUHRTQVGRU-LURJTMIESA-N,Clc1ccc2c(c1)c(C)cc(n2)OCCCNCCSS(=O)(=O)O,-3.197610657,4.5628,390.905
,C1109,UJBYRIKOTLHOAX-UHFFFAOYSA-N,CC(=O)Nc1ccc(cc1)OC(=O)C,-1.91,1.6433,193.199
,C1123,UJCHIZDEQZMODR-SCSAIBSYSA-N,C[C@H]1CCCC(=O)C1,-1.87,1.7656,112.17
,C5300,UJEGHEMJVNQWOJ-UHFFFAOYSA-N,OCCN(CC1CCc2c(N1)cccc2)CCc1ccccc1,-3.167696632,3.0883,310.433
,C7909,UJEWTUDSLQGTOA-UHFFFAOYSA-N,SC[C@H](C(=O)N)NC(=O)C,-1.447241039,-0.0026,162.21
,C2481,UJFIOYBFWBTUIG-UHFFFAOYSA-N,CCCCCCCOCCCCCCC,-5.854813795,4.9438,214.387
,C2928,UJLMDGSRQDVCFZ-UHFFFAOYSA-N,OC(=O)c1cc(N2CCCC2)c(c(c1)S(=O)(=O)N)Oc1ccccc1,-5.18997232,4.2708,362.4
,C1892,UJOBWOGCFQCDNV-UHFFFAOYSA-N,FC(c1ccccc1C[NH2+]CC12CCC(CC1)(CC2)C[NH2+]Cc1ccccc1C(F)(F)F)(F)F.[Cl-].[Cl-],-7.901725612,-1.1002,557.442
,C9000,UJRRDDHEMZLWFI-UHFFFAOYSA-N,CCNCCCNCCSP(=O)(O)O.CCNCCCNCCSP(=O)(O)O.O.O.O,-0.207514254,2.1737,538.598
,C240,UJRZYZOZJMDYJL-UHFFFAOYSA-N,c1ccc2c(c1)[nH]c1c2cccc1,-4.9699998,3.3211,167.207
,C7031,UKGBSAONERBPNE-UHFFFAOYSA-N,CC(=O)Nc1ncc(s1)[N+](=O)[O-],-2.066768165,1.6059,187.177
,C4127,UKLJMHXGZUJRTL-UHFFFAOYSA-L,CCCCC[NH2+]C(C(c1ccccc1)O)C.[Cl-],-4.022120198,-1.1339,257.799
,C8969,UKLQXHUGTKWPSR-UHFFFAOYSA-M,OS(=O)(=O)O.NNCCOc1ccc(cc1)O,-0.260966137,1.7535,266.272
,C3493,UKOJVGHJIMUQHH-UHFFFAOYSA-N,[O-]S(=O)(=O)NC1CCCCC1.[O-]S(=O)(=O)NC1CCCCC1.[Ca+2],-4.542133788,3.6812,396.537
,C6587,UKPBEPCQTDRZSE-UHFFFAOYSA-N,CC[N+](CCOC(=O)C(c1ccccc1)(C1CCCCC1)O)(CC)C.[Br-],-2.351737727,0.4881,428.404
,C6459,UKVLTPAGJIYSGN-UHFFFAOYSA-N,ClCCn1c(C)cnc1[N+](=O)[O-],-2.439616821,1.8617,189.6
,C7634,UKXSKSHDVLQNKG-UHFFFAOYSA-N,CN1CCN(CC1)C(c1ccccc1)c1ccccc1.Cl,-1.637366434,3.7012,302.842
,C5184,UKYCBARPGROEFH-UHFFFAOYSA-N,Clc1ccc(c(c1)Cl)C(Cn1cncc1)O,-3.257837397,2.9235,257.116
,C1003,ULBKMFLWMIGVOJ-CFXUUZMDSA-M,OC(=O)C(c1ccccc1)(c1ccccc1)O,-2.21,2.0071,228.243
,C9637,ULBXWWGWDPVHAO-QMMMGPOBSA-N,Oc1ccccc1C[N+](C)(C)C.[Br-],0.608803706,-1.3976,246.144
,C7460,ULBXWWGWDPVHAO-UHFFFAOYSA-N,CCC(C(=O)N[C@@H]1C(=O)N2[C@@H]1SC([C@@H]2C(=O)[O-])(C)C)Oc1ccccc1.[K+],-1.76716941,0.4698,416.533
,C844,ULDHMXUKGWMISQ-UHFFFAOYSA-N,C#C[C@@H](OC(=O)Nc1cccc(c1)Cl)C,-2.6199999,2.9832,223.656