Name,Compound ID,InChIKey,SMILES,logS,logP,MW
,C1756,DLWOTOMWYCRPLK-UVTDQMKNSA-N,Brc1ccc(nc1)OCCCCCCNCCSSCCNCCCCCCOc1ccc(cn1)Br.Cl.Cl,-10.38202647,9.5266,737.481
,C8347,DMBFFBKRQNVNGD-UHFFFAOYSA-N,COC1=C(OC)C=C/C(=c\2/c(N)c([nH]c(c2C)C(=O)O)c2ccc3c(n2)C(=O)C(=C(C3=O)OC)N)/C1=O,-1.036168675,2.2178,506.464
,C3962,DMBHHRLKUKUOEG-UHFFFAOYSA-N,CCN1CCCC(C1)OC(=O)Nc1cccc(c1)Br,-4.131027102,3.4928,327.217
,C572,DMDGGSIALPNSEE-UHFFFAOYSA-N,c1ccc(cc1)Nc1ccccc1,-3.51,3.5032,169.222
,C1694,DMEGYFMYUHOHGS-UHFFFAOYSA-N,FC(c1cc2NCNS(=O)(=O)c2cc1S(=O)(=O)N)(F)F	,-2.97 ,3.3428,331.292
,C569,DMEHMWWKTXHHMO-UHFFFAOYSA-L,C1CCCCCC1,-3.52,2.7307,98.1861
,C8965,DMFIGDASQQYBJQ-UHFFFAOYSA-N,c1cc[n+](cc1)CC[n+]1ccccc1.[Br-].[Br-],-0.265001096,-5.0302,346.061
,C5613,DMFSJTDYAUNOLX-UHFFFAOYSA-N,COc1ccc2c(c1)c(ccc2)C(CN1CCCCC1)O.Cl,-2.968570668,4.1076,321.842
,C5811,DMHTZWJRUUOALC-UHFFFAOYSA-N,CN1CCCC(C1)OC(=O)Nc1ccccc1C,-2.84479384,2.6486,248.321
,C6626,DMLAVOWQYNRWNQ-BUHFOSPRSA-N,Brc1ccc2c(c1)[nH]c(=O)o2,-2.330450322,1.8836,214.016
,C344,DMNGQHXPFKCWOC-HPABIPFQSA-M,c1ccc(cc1)/N=N/c1ccccc1,-4.4499998,4.102,182.221
,C2349,DMNHYFOROKQPHR-UHFFFAOYSA-N,CCCC[N+]12CCC(C(C1)C=C)C[C@@H]2[C@H](c1ccnc2c1cc(OC)cc2)O.[Cl-],-6.105577877,1.4509,416.984
,C4033,DMOJNFSULCPVQA-UHFFFAOYSA-N,Clc1ccc(nc1)SCCCCCCN1CSCC1.Cl,-4.085824317,5.1337,353.374
,C5478,DMPODMBXLRMZSP-UHFFFAOYSA-N,ClCC[NH+](CCOc1ccc(cc1)C)CC.[Cl-],-3.053448572,-1.4786,278.218
,C7562,DMSMPAJRVJJAGA-UHFFFAOYSA-N,CCCCN(CCCO)CCCC,-1.697412533,2.271,187.322
,C8547,DMSSTTLDFWKBSX-UHFFFAOYSA-N,O=c1[nH]sc2c1cccc2,-0.849089186,1.5896,151.186
,C6624,DMULVCHRPCFFGV-UHFFFAOYSA-N,O=c1nn[nH]c2c1cccc2,-2.332031296,0.3181,147.134
,C8156,DMVCRWSDMZHOBP-UHFFFAOYSA-N,CN(CCc1c[nH]c2c1cccc2)C,-1.225960263,2.272,188.269
,C3781,DMVWPCFYKFAELZ-UHFFFAOYSA-N,Clc1ccccc1CNCC1CCCCC1.Cl.Cl,-4.261874174,6.0048,310.69
,C4164,DMWLJGCTBADESH-UHFFFAOYSA-N,ClCC[NH+](CCOc1cccc2c1cccc2)CC.[Cl-],-3.993484603,-0.6338,314.25
,C3814,DMWQAGFXWKNDBE-UHFFFAOYSA-N,CNC(CC12CC3CC(C2Cl)CC(C1Cl)C3)C.Cl,-4.237453473,4.8283,312.706
,C6869,DNCYBUMDUBHIJZ-UHFFFAOYSA-N,CC(=C)Cn1c(=O)n(C)c2c(c1=O)n(C)cn2,-2.165576302,0.0098,234.254
,C1616,DNEJXIPLCRHMSL-UHFFFAOYSA-N,O=c1ccnc[nH]1,0.58999997,-0.2301,96.0874
,C6786,DNFFUBYXDRGKLH-UHFFFAOYSA-N,Clc1ccc2c(c1)N(C(=O)CC(=N2)N)c1ccccc1,-2.225508425,3.598,285.728
,C2102,DNFMJYXRIMLMBZ-UHFFFAOYSA-N,[O-][N+](=O)c1cc([N+](=O)[O-])c(c(c1)[N+](=O)[O-])O.CCCCOc1ccc(cc1)OCC(=O)N(c1ccc(cc1)OC)C(CN(CC)CC)C,-6.793754166,7.7028,671.695
,C3669,DNJIEGIFACGWOD-UHFFFAOYSA-N,Clc1ccc(cc1)Cn1c(CN2CCCC2)nc2c1cccc2.Cl,-4.371545216,5.0737,362.296
,C1472,DNKCFBJMFIUNRS-UHFFFAOYSA-N,CCS,-0.60000002,0.9361,62.134
,C7008,DNRVZOZGQHHDAT-UHFFFAOYSA-N,OS(=O)(=O)O.CNC(Cc1ccccc1)(C)C.CNC(Cc1ccccc1)(C)C,-2.083911956,5.664,424.597
,C7988,DNSAWKLVGYUVMD-UHFFFAOYSA-N,Clc1ccc(c(c1)C(=O)N)N,-1.372230252,2.3026,170.596
,C3624,DNTGGZPQPQTDQF-XBXARRHUSA-N,C[NH2+]CCCn1c(=O)c2ccccc2[nH]c2c1cccc2.[Cl-],-4.412271999,-1.3677,317.813
,C6240,DNTHHIVFNQZZRD-QYCNPIGJSA-N,C/C=C/C(=O)N(c1ccccc1C)CC,-2.568295735,2.924,203.28
,C470,DNVMAHXEIATJSW-UHFFFAOYSA-N,O=C1NC(=O)[C@@H]2[C@H]1[C@H]1/C(=C(/c3ccccn3)\c3ccccc3)/[C@@H]2C=C1[C@](c1ccccn1)(c1ccccc1)O,-3.9300001,4.6182,511.57
,C8226,DNVWXCCXMJHGAD-UHFFFAOYSA-N,CN1CCN(C1=Nc1ncc(s1)[N+](=O)[O-])C,-1.153844566,1.315,241.27
,C7366,DNXHEGUUPJUMQT-CBZIJGRNSA-N,COC1C=Cc2c(N1C(=O)C)cccc2,-1.835254874,2.1038,203.237
,C461,DNXJJIZZMJTTAV-UHFFFAOYSA-N,Oc1ccc2c(c1)CC[C@@H]1[C@@H]2CC[C@]2([C@H]1CCC2=O)C,-3.96,3.8174,270.366
,C7550,DNYZBFWKVMKMRM-UHFFFAOYSA-N,OC(C(CC([N+](=O)[O-])([N+](=O)[O-])Br)O)c1ccccc1,-1.706961481,2.1195,335.108
,C5021,DOBMPNYZJYQDGZ-UHFFFAOYSA-N,ON=C(c1ccccc1)c1ccccc1,-3.372678225,2.9132,197.233
,C4949,DOFZAZXDOSGAJZ-UHFFFAOYSA-N,O=c1oc2ccccc2c(c1Cc1c(=O)oc2c(c1O)cccc2)O,-3.420194735,2.9014,336.295
,C393,DOHZIJDJOSBJFP-UHFFFAOYSA-N,CCSCCSP(=S)(OCC)OCC,-4.23,4.4208,274.404
,C5741,DOIBQIDXMYSSJY-XEZLXBQYSA-N,CSCCC(C(=O)O)Nc1ccc(cc1[N+](=O)[O-])[N+](=O)[O-],-2.8859401,3.2406,315.302
,C735,DOIGHQCAQBRSKI-UHFFFAOYSA-N,COC1=C[C@H]2[C@H](C(=C1)O)C(=O)[C@H]1[C@H](O2)C=CC(=C1)O,-2.9400001,1.5528,262.258
,C9695,DOIRQSBPFJWKBE-UHFFFAOYSA-N,OCc1c(CO)n([O-])c2c([n+]1=O)cccc2,0.653255945,-0.1137,222.197
,C358,DOOTYTYQINUNNV-UHFFFAOYSA-N,CCCCOC(=O)c1ccccc1C(=O)OCCCC,-4.4000001,3.6004,278.343
,C8723,DOQPXTMNIUCOSY-UHFFFAOYSA-N,CCOC(=O)C(CC(=O)OCC)(CC(=O)OCC)O,-0.62844395,0.187,276.283
,C2416,DORCXWYLYIYZEW-UHFFFAOYSA-N,COc1ccc(cc1OC)CCN(CCCC(c1ccc(c(c1)OC)OC)(C(C)C)C#N)C.Cl,-5.98613456,5.89508,491.063
,C7761,DORJTLCHLYFCTG-UHFFFAOYSA-N,[O-][N+](=O)O.OCCn1c(=O)n(C)c2c(c1=O)n(C)cn2,-1.555686028,-1.3985,287.229
,C4867,DORZSPXXJAIBKW-DQMXGCRQSA-N,CCCC(COC(=O)N1CCOCC1)(COC(=O)N1CCOCC1)C,-3.486224549,1.6062,358.43
,C9648,DOWJXOHBNXRUOD-UHFFFAOYSA-N,Cn1ccn(/c/1=C\[NH+]=O)COCCC#C.[Cl-],0.613160528,-4.3059,243.69
,C152,DOYVYJMGDPTADV-UHFFFAOYSA-N,Cc1cccc2c1ccc1c2cccc1,-5.8499999,4.3014,192.256
,C3475,DOZRDZLFLOODMB-UHFFFAOYSA-N,CCC(=O)OC1(CCN(CC1)C(C)C)C1CCCCC1.Cl,-4.558793293,4.5028,317.894
,C4254,DPEHDUYRYHMVNX-UHFFFAOYSA-N,O=Cc1cc(c(c(c1)C(C)(C)C)O)C(C)(C)C,-3.916526232,3.7997,234.334
,C6717,DPFSZEXJIOUDSW-UHFFFAOYSA-N,CCN1CCN(CC1C(=O)Nc1ccccc1)CC.ON=O.ON=O,-2.265153992,1.8839,355.389
,C5019,DPHJIIKILUCABY-UHFFFAOYSA-N,O=C(COc1ccccc1)OCCCN1CCCCC1C,-3.374571008,2.811,291.385
,C7645,DPJCXCZTLWNFOH-UHFFFAOYSA-N,ClCC[N+](CCCl)(CC)[O-],-1.628216251,1.8194,186.08
,C1085,DPJRMOMPQZCRJU-UHFFFAOYSA-M,[O-][N+](=O)c1ccccc1N,-1.96,2.2814,138.124
,C9533,DPKHZNPWBDQZCN-UHFFFAOYSA-N,OCCc1sc[n+](c1C)Cc1cnc(nc1N)C.[Cl-].Cl,0.472031301,-1.0051,337.269
,C6223,DPOVAJCRYIUTBD-HNNXBMFYSA-N,CN(c1ccc2c(c1)nc1c(c2)ccc(c1)N(C)C)C,-2.578737402,3.52,265.353
,C6490,DPRSKJHWKNHBOW-KCGFPETGSA-N,COc1ccc2c(cc1=O)[C@H](CCc1c2c(OC)c(c(c1)OC)O)NC(=O)C,-2.419795758,2.9595,385.41
,C8994,DPWPWRLQFGFJFI-UHFFFAOYSA-N,OC[C@H]1O[C@H]([C@@H]([C@@H]1O)O)n1ccc2c1[nH]cnc2=O,-0.220077212,-1.6639,267.238
,C8358,DPXWHZUTDZONDB-UHFFFAOYSA-N,CN(Cc1ccccc1)CC#C,-1.026518509,1.7516,159.228
,C4487,DPZNOMCNRMUKPS-UHFFFAOYSA-N,COc1ccc(cc1)C(=O)Cc1ccccc1C(=O)O,-3.734590995,2.8188,270.28
,C6985,DQCKKXVULJGBQN-XFWGSAIBSA-N,COc1cccc(c1)OC,-2.097038907,1.7038,138.164
,C6637,DQJCHOQLCLEDLL-UHFFFAOYSA-N,O=C1CC[C@@]2([C@@]34[C@H]1Oc1c4c(C[C@H]2N(CC3)CC2CC2)ccc1O)O,-2.32108483,1.4633,341.401
,C1049,DQMZLTXERSFNPB-UHFFFAOYSA-N,Cc1cccc2c1n1cnnc1s2,-2.0699999,2.2524,189.237
,C830,DQPNQXUUCWOWCK-UHFFFAOYSA-N,CCC1(C(=O)NCNC1=O)c1ccccc1,-2.6400001,1.1955,218.252
,C2687,DQQNMIPXXNPGCV-UHFFFAOYSA-N,CCOC(C(=O)N(CCN(CCc1ccccc1)C)C)(c1ccccc1)c1ccccc1.Cl,-5.517075023,5.4016,467.043
,C1076,DQTGDWXWOOUMFT-UHFFFAOYSA-N,CCC#CCC,-1.99,1.8098,82.1436
,C6604,DQTVKTMIXALQNO-UHFFFAOYSA-N,[O-][N+](=O)O.OCCn1c(=O)n(C)c2c(c1=O)n(C)c(n2)Cl,-2.343063117,-0.7451,321.674
,C3994,DQUIGLNWFFUKSE-UHFFFAOYSA-N,CCCN1CCc2c(C1)cccc2NC(=O)c1ccc(c(c1)OC)OC,-4.114986089,3.7351,354.443
,C8250,DQWPFSLDHJDLRL-UHFFFAOYSA-N,OC(COC(=O)C)COc1ccccc1,-1.129568026,0.9894,210.226
,C1599,DQZCVNGCTZLGAQ-UHFFFAOYSA-N,CCOP(=O)(OCC)OCC,0.43000001,2.204,182.155
,C940,DQZVUDZSBQMLJC-UHFFFAOYSA-N,CN(C(=O)NC1CCCCCCC1)C,-2.3599999,2.7614,198.305
,C3700,DRAVOWXCEBXPTN-UHFFFAOYSA-N,Cc1cccc2c1nc1ccccc1c2N,-4.348732582,3.8598,208.258
,C596,DRAZTHQSSHSOGK-UHFFFAOYSA-N,Oc1nc(N)c2c(n1)nc[nH]2,-3.4000001,0.2219,151.126
,C5376,DRAZYTHOEPZGLA-UHFFFAOYSA-L,CCCNC(=O)OCC(C(C)C)(COC(=O)N)C,-3.112334851,2.9714,260.33
,C9341,DRBAJMGSRKIURK-UHFFFAOYSA-N,CC[N+](CCOCC[N+](CC)(CC)CC)(C)C.[I-].[I-],0.300814648,-4.0162,500.241
,C8184,DRCKREXMVGWWIE-UHFFFAOYSA-N,CC(C#C)NCc1ccccc1,-1.202899781,2.1888,159.228
,C5596,DRCWKSLSPAENOZ-UHFFFAOYSA-N,O=C(c1ccc(cc1)[N+](=O)[O-])Nc1cccnc1,-2.97776289,2.8383,243.218
,C5804,DREPSSCSPHCHTF-UHFFFAOYSA-N,FC(Oc1cccc(c1)NC(=O)c1ccncc1)F.Cl,-2.848709386,3.8103,300.688
,C2792,DRKWSHLYQCUKKG-UHFFFAOYSA-N,CNC(CC12CC3CC(C2c2ccccc2)CC(C1)C3)C.Cl,-5.374703537,5.7874,319.912
,C7992,DRLFMBDRBRZALE-UHFFFAOYSA-N,CC1NC(C)(C)C2CC1CC2,-1.367888954,2.5018,153.265
,C6416,DRLLEHPFGRESBT-UHFFFAOYSA-N,COc1ccc2c(c1)c(CCNC(=O)C)c[nH]2,-2.462330695,2.246,232.278
,C2124,DRLZGRQTCWVOKV-UHFFFAOYSA-N,CC(=O)OCCN1CCN(CC1)CCCN1c2ccccc2Sc2c1cc(Cl)cc2.Cl.Cl,-6.736009183,6.0583,518.927
,C8360,DRONDEZXOJEUGU-UHFFFAOYSA-N,CC(Cc1cc(C)c(c(c1)C)O)N.Cl,-1.024262237,3.401,215.72
,C3968,DRPFIPXZBMWJTH-UHFFFAOYSA-N,N#CC(c1ccccc1)Cc1ccccc1,-4.126217321,3.53648,207.27
,C5759,DRQHMYYWGQFHOV-UHFFFAOYSA-N,COc1ccccc1N1CCN(CC1)CC(COc1cccc(c1)C(=O)C)O,-2.875599286,2.4626,384.469
,C2189,DRTQHJPVMGBUCF-XVFCMESISA-N,CC(=CCC(c1cccc2c1cccc2)(C(=O)N)CCN1CCCCC1)C,-6.516413859,5.4334,364.524
,C8734,DRUIESSIVFYOMK-UHFFFAOYSA-N,OC[C@H]1O[C@H]([C@@H]([C@@H]1O)O)n1ccc(=O)[nH]c1=O,-0.60085767,-2.8519,244.201
,C1013,DRVFXZCCIRGBTB-UHFFFAOYSA-N,N#CC(Cl)(Cl)Cl,-2.1700001,1.88018,144.387
,C4839,DRVXIPMHENHGQH-UHFFFAOYSA-N,CCCCCCC(=O)c1ccc(cc1)N.Cl,-3.512978745,4.8051,241.757
,C6597,DRYRBWIFRVMRPV-UHFFFAOYSA-N,CCOc1ccc(cc1OC)Cc1cnc(nc1N)N,-2.345543176,2.8015,274.318
,C8006,DSCOGGPZXUKTID-UHFFFAOYSA-N,Nc1ncnc2c1cccc2,-1.353921167,1.7932,145.161
,C3272,DSERYMNADDJALG-FOWTUZBSSA-N,COC(=O)c1c(C)ccc(c1OCCN1CCCCC1)C(C)C,-4.766408782,3.7076,319.438
,C3672,DSEVZPBSGUGCAY-UHFFFAOYSA-N,CC1=NN(C(=O)/C/1=C/Nc1ccccc1)c1ccccc1,-4.371110146,2.9787,277.321
,C3291,DSEYHMSMHVUVLX-UHFFFAOYSA-N,CCN(CC(c1ccc2c(c1)c1ccccc1cc2)O)CC.Cl,-4.747488189,5.1702,329.864
,C3045,DSKDIOZEEJPDAJ-UHFFFAOYSA-N,ClCC[NH+](Cc1ccccc1)CCOc1ccccc1CC.[Cl-],-5.051078985,-0.0443,354.314
,C6843,DSKIOWHQLUWFLG-SPIKMXEPSA-N,N/C(=N\C1CCCCC1)/CSS(=O)(=O)O,-2.181890058,2.9934,252.354
,C2228,DSKJPMWIHSOYEA-UHFFFAOYSA-N,CN1CCN(CC1)CCCN1c2ccccc2Sc2c1cc(Cl)cc2.OC(=O)/C=C\C(=O)O.OC(=O)/C=C\C(=O)O,-6.405957998,3.9446,606.087
,C415,DSKLAYUHVDHXSH-ISLYRVAYSA-N,CCCCc1c(C)nc(nc1OS(=O)(=O)N(C)C)NCC,-4.1599998,2.8984,316.42
,C2945,DSNHSQKRULAAEI-UHFFFAOYSA-N,COc1ccc(cc1)CN(/N=N/c1ccc(cc1)C(=O)O)C,-5.166307226,3.5241,299.324
,C505,DSRNRYQBBJQVCW-UHFFFAOYSA-N,CCc1ccc(cc1)CC,-3.75,2.8114,134.218
,C870,DSSRNNGLLCLIPR-QHGLUPRGSA-N,COc1ccc(cc1Cl)NC(=O)N(C)C,-2.5599999,2.5151,228.675
,C6917,DSSYKIVIOFKYAU-OIBJUYFYSA-N,O=C([C@@H](N)C)NC1CCc2c(C1)cccc2,-2.143154083,2.0985,218.295
,C1072,DSSYKIVIOFKYAU-UHFFFAOYSA-N,O=C1C[C@H]2C([C@]1(C)CC2)(C)C,-1.99,2.4017,152.233
,C7170,DSVCXDBXXBVSEB-UHFFFAOYSA-N,O=C1CC2C(C1(C)CC2)(C)C,-1.978400234,2.4017,152.233
,C4884,DSXBQRQLQMPKOA-XJXJHPFJSA-M,CCOP(=O)(Sc1ccc(cc1)[N+](=O)[O-])OCC,-3.472166375,4.3912,291.261
,C2417,DSXNAAVBZUNNJI-UHFFFAOYSA-N,CCC[N+]12CCC(C(C1)C=C)C[C@@H]2[C@H](c1ccnc2c1cc(OC)cc2)O.[Br-],-5.983259519,1.0608,447.408
,C6879,DSZWSFATCDIJEH-CZPWWGKQSA-N,NC1=NCC(O1)CSc1ccccc1,-2.163309467,1.6281,208.28
,C3143,DTAAMVZDTXCCDV-UHFFFAOYSA-N,O[C@H]([C@H](C(=O)O)O)C(=O)O.Oc1ccc2c(c1)[C@]13CCCC[C@H]3[C@@H](C2)N(CC1)CCCNc1ccccc1,-4.926321006,2.8411,526.621
,C6636,DTCVSBBTVQOZPW-DCXSSQDFSA-N,CN1CCC(C1)OC(=O)Nc1ccccc1C,-2.324447456,2.2585,234.294
,C1898,DTESHEPEJUMCJO-UHFFFAOYSA-N,CCCCOc1ccc(c2c1cccc2)C(=N)[NH+](CCCC)CCCC.[Cl-],-7.894071769,1.9329,390.99
,C6563,DTGGNTMERRTPLR-UHFFFAOYSA-N,NNC(Cc1ccccc1Cl)C.Cl,-2.366000898,3.6275,221.127
,C6573,DTGKSKDOIYIVQL-OYNCUSHFSA-N,NC(c1ccccc1)Cc1ccccc1,-2.360485844,3.6294,197.276
,C964,DTMRKGRREZAYAP-UHFFFAOYSA-N,O[C@H]1C[C@H]2C([C@]1(C)CC2)(C)C,-2.3199999,2.1935,154.249
,C5,DTNBCRXQERFIGT-UHFFFAOYSA-N,Clc1cc(c(c(c1Cl)Cl)Cl)c1cc(Cl)c(c(c1Cl)Cl)Cl,-9.1599998,8.5808,429.768
,C2007,DTNVIQYPPCCDBY-UHFFFAOYSA-N,C1CCCCC(C1)NCC1CCC(CC1)CNC1CCCCCC1.Cl.Cl,-7.141788809,7.8034,407.504
,C2434,DTQPKKCVUDORIM-UHFFFAOYSA-N,CCCCCCC1CCCCN1CCCOC(=O)c1ccccc1,-5.947611931,4.9963,331.492
,C6186,DTRYRQSAXWHXNC-UHFFFAOYSA-N,Fc1ccc(cc1)C(=O)C(CCN1CCN(CC1)c1ccccc1)O,-2.602585398,2.5845,342.407
,C3177,DTSSCQVCVYZGSI-UHFFFAOYSA-N,CCN(CCNC(=O)COc1c(ccc(c1C(=O)OC)C)C(C)C)CC,-4.889582982,3.1327,364.479
,C641,DTTDXHDYTWQDCS-UHFFFAOYSA-N,COC(=O)c1cc(Cl)cc(c1Cl)N,-3.26,2.9434,220.053
,C5620,DTTVBSRGHJKBOQ-UHFFFAOYSA-N,OC1(CCCCC1)c1ccccc1,-2.965800609,2.8383,176.255
,C2603,DTUFJJOVXZRLNG-UHFFFAOYSA-L,CCN(CC(=O)N1C(C)(C)CC(=CC1(C)C)c1ccccc1)CC,-5.656796808,4.1392,328.492
,C1838,DTVDOFSPTLXDKL-CQSXPVNESA-N,NC1CCCCCCC1.NC1CCCCCCC1.[Cl-].[Cl-].[Pt+2],-8.493659187,-0.4779,520.439
,C3158,DTVJXCOMJLLMAK-UHFFFAOYSA-N,COc1cc(CCN2CC[C@@]34[C@H]([C@H]2Cc2c4cc(cc2)O)CCCC3)ccc1OC.Cl,-4.914197433,5.4504,444.006
,C2220,DTVKHGYUYWRPAS-UHFFFAOYSA-N,O=C(N1c2ccccc2Sc2c1nccc2)OCCOCCN1CCCCC1,-6.429800114,4.3263,399.506
,C8370,DTVMSQHPXIPLED-BTJKTKAUSA-N,CCNC(CC)(C)C.Cl,-1.007736296,2.9774,151.678
,C2157,DTYGEAKGUGEGKX-UHFFFAOYSA-N,C1CCN(CC1)CC1COC2(O1)c1ccccc1C=Cc1c2cccc1.OC(=O)/C=C\C(=O)O,-6.616859825,3.9225,463.522
,C6895,DTYRWULXBWFUDY-UHFFFAOYSA-N,NC(=O)Cc1c(nc2n1cccc2)c1ccc(cc1)S(=O)(=O)C,-2.154077321,3.2137,329.374
,C6289,DUDYCTFOKLFKCC-UHFFFAOYSA-N,NNC(=O)OCC(COC(=O)NN)(CC)CC,-2.540033962,2.175,248.279
,C9660,DUEPRVBVGDRKAG-UHFFFAOYSA-N,N#CCCNC(CSS(=O)(=O)O)(C)C,0.622839492,2.27598,238.328
,C779,DUGOZIWVEXMGBE-UHFFFAOYSA-N,CNC(=O)Oc1cccc2c1OC(C2)(C)C,-2.8,2.5092,221.252
,C9082,DUHUCHOQIDJXAT-CSXWOMMHSA-N,COC(=O)C(c1ccccc1)C1CCCCN1,-0.064739158,2.4141,233.306
,C4255,DUIOKRXOKLLURE-UHFFFAOYSA-N,O[C@@H]1CC[C@]2([C@@H](C1)CC[C@@H]1[C@@H]2C(=O)C[C@]2([C@H]1CC[C@@H]2C(=O)C)C)C,-3.915389399,3.7742,332.477
,C3237,DUIOPKIIICUYRZ-UHFFFAOYSA-N,CCCCCCCCc1ccccc1O,-4.821799863,4.2952,206.324
,C9940,DUJCNGWLFREXBE-UHFFFAOYSA-N,NNC(=O)N,1.124527805,0.3199,75.0699
,C6646,DUJCODMLPMOWER-UHFFFAOYSA-N,CC(CNC(Cc1ccc(cc1)Cl)(C)C)O,-2.315196789,3.0224,241.757
,C7321,DULRAWOLASLZFF-UHFFFAOYSA-N,Nc1ccc(cc1)C(=O)Nc1ccccn1.Cl.Cl,-1.871142142,4.1743,286.157
,C2564,DUOSTAZRNKWZKT-UHFFFAOYSA-N,CN(C(CC12CC3CC(C2)CC(C1)C3)C)Cc1ccccc1.Cl,-5.718172787,5.9154,333.938
,C5434,DURPTKYDGMDSBL-UHFFFAOYSA-N,CCCSCCCCCCN1CCSC1.Cl,-3.078443036,4.4362,283.925
,C1129,DURULFYMVIFBIR-UHFFFAOYSA-N,CCCCOCCCC,-1.85,2.6032,130.228
,C7449,DUTKSCXDHLBQRC-UHFFFAOYSA-N,OC(COc1ccc(cc1)NC(=O)C)CNC(C)C,-1.774936231,1.8466,266.336
,C4393,DUTLJDUDHBSLFN-UHFFFAOYSA-N,CCOC(=O)c1c(C)ccc(c1OCCN1CCOCC1)C(C)C,-3.809616685,2.944,335.438
,C6736,DUXCSEISVMREAX-UHFFFAOYSA-N,CC(=O)N1OCc2c(C1)ccc(c2)[N+](=O)[O-],-2.253322369,1.8496,222.197
,C1482,DVALMHFCJYLXPH-UHFFFAOYSA-N,OCCC(C)(C)C,-0.5,1.4149,102.175
,C5427,DVASNQYQOZHAJN-UHFFFAOYSA-N,O=C(c1ccc(cc1)I)NCC(=O)O,-3.08162387,1.4965,305.069
,C3861,DVBJBNKEBPCGSY-UHFFFAOYSA-M,CCC(c1cccc(c1)C(F)(F)F)(c1ccccc1)O,-4.195726165,4.3513,280.285
,C4762,DVDCIQWIGOVWEX-BORNJIKYSA-M,CCCCCCCCCCCCCCCC[n+]1ccccc1.[Br-],-3.566134859,3.4594,384.437
,C6591,DVDCIQWIGOVWEX-MLBSPLJJSA-M,COc1ccc(cc1)C(=O)/C(=C/C(=O)[O-])/Br.[Na+],-2.350523908,0.9066,307.073
,C9559,DVEQCIBLXRSYPH-UHFFFAOYSA-N,COc1ccc(cc1)C(=O)/C(=C\C(=O)[O-])/Br.[Na+],0.512755525,0.9066,307.073
,C4565,DVHOMPKWTYENNE-UHFFFAOYSA-M,CCCCC1C(=O)NC(=O)N(C1=O)C1CCCCC1,-3.684128817,2.4706,266.336
,C9786,DVLBYTMYSMAKHP-UHFFFAOYSA-N,[S-]C(=S)N1CCOCC1.[Na+],0.73227695,0.0883,185.243
,C2233,DVLZNYFUUUDCOL-UHFFFAOYSA-N,CCCC(=O)c1ccc2c(c1)N(CCCN1CCN(CC1)C)c1c(S2)cccc1,-6.394867532,4.8504,409.587
,C4871,DVMKENULKFKEFR-UHFFFAOYSA-N,C=CCN1CCC2(C(C1Cc1c2cc(cc1)O)C)CC,-3.484714467,3.4304,271.397
,C9788,DVQHYTBCTGYNNN-UHFFFAOYSA-N,NC(=O)CCC(=O)C(=C)NC(=O)C,0.734722139,0.562,184.192
,C7837,DVQVBLBKEXITIK-UHFFFAOYSA-N,OC(=O)C1(CCC1)C(=O)O.[Pt].N.N,-1.503468519,0.9712,373.264
,C510,DVQZHWAYOLXTHE-UHFFFAOYSA-N,Nc1ccc(cc1)S(=O)(=O)Nc1nnc(s1)C(C)(C)C,-3.74,3.9536,312.411
,C8800,DVRWEKGUWZINTQ-UHFFFAOYSA-N,CC[N+](Cc1ccccc1)(CCCNC1=CC(=O)C(=CC1=O)NCCC[N+](Cc1ccccc1)(CC)CC)CC.[Br-].[Br-],-0.51331962,-0.2312,706.594
,C8116,DVUJZAFUMNITPR-UHFFFAOYSA-N,O=C1CSC(=S)N1c1ccccc1,-1.256271833,2.1163,209.288
,C5731,DVVGIUUJYPYENY-UHFFFAOYSA-N,O=C1C(CCc2c1cccc2)C[NH+]1CCCCC1.[Cl-],-2.894191927,0.0737,279.805
,C1638,DVVILHAVIZXVQQ-UHFFFAOYSA-N,O=c1ccccn1C,0.95999998,0.3853,109.126
,C6132,DVVVPMHPSRJZQX-UHFFFAOYSA-N,Cc1n(C)c(=O)n(c(=O)c1I)c1ccccc1,-2.640992008,1.4492,342.132
,C8998,DWAQDRSOVMLGRQ-UHFFFAOYSA-N,CCN(c1ccccc1C)C(=O)N,-0.209600305,2.6003,178.231
,C7102,DWDXRBSFDKWBHA-UHFFFAOYSA-N,COc1ccc2c(c1)cc[nH]2,-2.034620489,2.1765,147.174
,C5497,DWEQWXSKOHHBNT-VKAVYKQESA-N,C=CCNC(=O)OCC(COC(=O)N)(CC)CC,-3.042938795,2.8915,258.314
,C4583,DWMMEAHAHZXDLA-UHFFFAOYSA-N,NC(=O)CCCN/C(=C\1/C=C(F)C=CC1=O)/c1ccc(cc1)Cl,-3.674413151,3.9897,334.773
,C6143,DWNHSPCOMOSJRI-UHFFFAOYSA-N,CCCC(COC(=O)NC)(COC(=O)NC)C,-2.631808928,2.2866,246.303
,C6589,DWSGTFTVBLXELC-MOTQWOLNSA-N,Nc1ccc2c(c1)[n+](C)c1c(c2)cccc1.[Br-],-2.350572521,-0.0151,289.17
,C8896,DWTDGCXSUCRGEH-UHFFFAOYSA-N,OC(c1ccccc1)C(=O)OC1C[C@@H]2CC[C@H](C1)N2C.Br,-0.378580807,2.7844,356.255
,C4267,DWUOZVCWMPJABS-UHFFFAOYSA-N,OC(CN1CCN(CC1)c1cccc(c1)C(F)(F)F)COc1ccccc1C(=O)C,-3.905613955,3.4728,422.441
,C3666,DWUQNHFGCISCNR-OHGISNTKSA-N,ClCCN(c1cc(ccc1C)S(=O)(=O)O)CCCl,-4.373865909,3.6065,312.213
,C2858,DWYCPPAVBIZSHC-UHFFFAOYSA-N,C[NH+](CC/C=C/1\c2ccccc2Sc2c1cc(cc2)C(=O)C)C.[Cl-],-5.277442714,0.3241,359.913
,C2479,DWYHDSLIWMUSOO-UHFFFAOYSA-N,CCCC[NH+](CCCC1(c2ccccc2)C(=O)Oc2c1cccc2)CCCC.[Cl-],-5.86551237,1.161,415.996
,C5001,DXDRHHKMWQZJHT-FPYGCLRLSA-N,c1ccc(cc1)c1nc2c([nH]1)cccc2,-3.385024882,3.2299,194.232
,C5489,DXESFJJJWBHLJX-UHFFFAOYSA-N,Oc1ccc(cc1)/C=C/C(=O)c1ccc(cc1O)O,-3.046947885,2.6995,256.253
,C7457,DXGIRFAFSFKYCF-UHFFFAOYSA-N,Oc1ccc2c(c1)C1(C)CCNC(C2)C1C,-1.768881985,2.5328,217.307
,C8950,DXHYQIJBUNRPJT-UHFFFAOYSA-N,CCC(=O)NN,-0.30157253,0.4775,88.1084
,C6208,DXKCLYVLUMBHOG-MERLXDPCSA-N,CCCCNC(=O)c1cc(N)ccc1OCC#C,-2.592969511,2.7828,246.305
,C3473,DXPMJCLOFQOSSS-UHFFFAOYSA-N,O[C@H]([C@H](C(=O)O)O)C(=O)O.O[C@H]([C@H](C(=O)O)O)C(=O)O.O[C@H]([C@H](C(=O)O)O)C(=O)O.CCC(=O)OC1(CC(C)N(CC1C)CCCN1CCN(CC1)C)c1ccccc1.O,-4.561055444,-3.4155,869.861
,C8219,DXUUXWKFVDVHIK-UHFFFAOYSA-N,CN(Cn1c(=O)oc2c1cc(Cl)cc2)C,-1.162250286,1.767,226.66
,C9254,DXXUGBPKQDTBQW-UHFFFAOYSA-L,CC[N+](Cc1ccccc1Cl)(CCNC(=O)C(=O)NCC[N+](Cc1ccccc1Cl)(CC)CC)CC.[Cl-].[Cl-],0.215760851,-0.571,608.471
,C9442,DYAGPCQOMOCCFX-MERQFXBCSA-M,Clc1c2C[N+](Cc2c(c(c1Cl)Cl)Cl)(C)CC[N+](C)(C)C.[Cl-].[Cl-],0.367514343,-1.5666,429.04
,C9561,DYAHQFWOVKZOOW-UHFFFAOYSA-N,CN1CCC[C@H]1c1ccc[n+](c1)C.[I-],0.516876498,-1.7803,304.171
,C9878,DYAWASAZUYPBDU-UHFFFAOYSA-N,CC(OP(=O)(F)C)C,0.853580495,2.2038,140.093
,C6347,DYDCUQKUCUHJBH-REOHCLBHSA-N,CCC(C(=O)N)(SCC=C)CC,-2.509112079,2.65,187.302
,C9249,DYDCUQKUCUHJBH-UHFFFAOYSA-N,N[C@H]1CONC1=O,0.211112122,-0.5958,102.092
,C9248,DYDCUQKUCUHJBH-UWTATZPHSA-N,NC1CONC1=O,0.211112122,-0.5958,102.092
,C9862,DYDNPESBYVVLBO-UHFFFAOYSA-N,N[C@@H]1CONC1=O,0.82101497,-0.5958,102.092
,C1456,DYESHNNFAFXIKV-UHFFFAOYSA-N,O=CNc1ccccc1,-0.68000001,1.9638,121.137
,C8801,DYIMWUCLECRKCE-UHFFFAOYSA-N,OC(=O)C(=O)[O-].Oc1ccc2c(c1)c(CC[NH+](C)C)c[nH]2,-0.511193319,-1.6186,294.303
,C4681,DYJUIQICMYDPOM-UHFFFAOYSA-N,CCCCN(CCCC)CCCNC1=CC(=O)c2c(C1=O)cccn2,-3.616811995,3.6173,343.463
,C2854,DYLFXNWAKZHDJH-UHFFFAOYSA-N,[O-]C(=O)C(CC(=O)O)(CC(=O)O)O.COc1c2occc(c2c(=O)c2c1oc(c2)C)OCC(C[NH+](C(C)C)Cc1ccccc1)O,-5.279727696,0.4578,643.635
,C9782,DYLNCLOFQCXHPR-UHFFFAOYSA-N,CC(C(=O)O)ON.Br,0.730475381,1.0082,186.005
,C5205,DYWCIVBBDWZOCL-UHFFFAOYSA-M,CCCCN1CCC(CC1)(OC(=O)CC)c1ccccn1.Cl.Cl,-3.236010436,4.6679,363.322
,C9631,DYWNLSQWJMTVGJ-DKXTVVGFSA-N,C=Cc1cc[n+](cc1)C.[I-],0.607164183,-1.8419,247.076
,C9777,DYWNLSQWJMTVGJ-KUSKTZOESA-N,O[C@@H](c1ccccc1)[C@@H](N)C.Cl,0.726612065,2.5695,187.667
,C9778,DYWNLSQWJMTVGJ-UHFFFAOYSA-N,O[C@H](c1ccccc1)[C@@H](N)C.Cl,0.726612065,2.5695,187.667
,C9776,DZAANUYJOGCNLL-UHFFFAOYSA-N,OC(c1ccccc1)C(N)C.Cl,0.726612065,2.5695,187.667
,C7754,DZBUGLKDJFMEHC-UHFFFAOYSA-N,CC(Cc1ccc(cc1)Cl)N.Cl,-1.565136202,3.732,206.112
,C529,DZCPIPIKEVVNLF-UHFFFAOYSA-N,c1ccc2c(c1)nc1c(c2)cccc1,-3.6700001,3.388,179.217
,C7529,DZDWZZVVAPKKJA-UHFFFAOYSA-M,CCOC(=O)C1=CN(CC)C2N(C1=O)C(C)CCC2,-1.721287509,1.3718,266.336
,C3410,DZDXQECBERXVDV-UHFFFAOYSA-M,CC1(C)C2CCC(C1C2)CCOCC[N+]1(CCOCC1)Cc1ccccc1.[Br-],-4.618170001,1.4754,452.468
,C8309,DZGWFCGJZKJUFP-UHFFFAOYSA-N,CCN(C(=S)[S-])CC.[Tl+],-1.084936038,1.16,352.653
,C1349,DZHVJUCGKWKRTO-UHFFFAOYSA-N,NCCc1ccc(cc1)O,-1.12,1.5937,137.179
,C7972,DZJTUNPUCLMFDQ-UHFFFAOYSA-N,Nc1onc(n1)c1ccccc1,-1.390364198,1.9,161.161
,C5343,DZLNHFMRPBPULJ-GSVOUGTGSA-N,NC(=O)OC(COc1ccccc1C)COC(C)C,-3.139237862,2.963,267.321
,C9417,DZLNHFMRPBPULJ-UHFFFAOYSA-N,OC(=O)[C@H]1CSCN1,0.354176435,0.0623,133.169