Name,Compound ID,InChIKey,SMILES,logS,logP,MW
,C9888,DZMDPHNGKBEVRE-UHFFFAOYSA-N,OC(=O)C1CSCN1,0.875609939,0.0623,133.169
,C454,DZNHKWPUFQKTRB-UHFFFAOYSA-N,CCCCCCCCl,-3.99,3.1956,134.647
,C6651,DZQHJJNXQKUMDH-UHFFFAOYSA-N,Nc1ccc(cc1)C(=O)Nc1nccc(c1)C,-2.3112134,2.8787,227.262
,C4364,DZQVFHSCSRACSX-UHFFFAOYSA-N,CC[NH+](CCC1(c2ccccc2)C(=O)Oc2c1cc(C)cc2)CC.[Cl-],-3.834364003,-0.4811,359.89
,C773,DZSACGCXMKKHKB-WLHGVMLRSA-N,Cc1cnc(nc1)NS(=O)(=O)c1ccc(cc1)N,-2.8199999,2.903,264.304
,C3201,DZSKWIJNUAODIH-UHFFFAOYSA-N,OC(=O)/C=C/C(=O)O.CNCCCC1c2ccccc2CN(c2c1cccc2)C,-4.86987517,3.9356,396.479
,C4107,DZTHIGRZJZPRDV-LBPRGKRZSA-N,N(Cc1ccco1)CC1CCC(CC1)CNCc1ccco1.Cl.Cl,-4.040391813,5.9442,375.333
,C7160,DZUOQMBJJSBONO-CQSZACIVSA-N,CC(=O)N[C@H](C(=O)O)Cc1c[nH]c2c1cccc2,-1.991730753,1.6906,246.262
,C5230,DZVPGIORVGSQMC-UHFFFAOYSA-N,COc1ccc2c(c1O)c1cccc3c1[C@@H](C2)N(C)CC3,-3.221882211,3.0908,281.349
,C2690,DZWTXWPRWRLHIL-UHFFFAOYSA-N,COc1nc(c(c(c1Cl)OC)Cl)C(Cl)(Cl)Cl,-5.512405523,4.2323,325.404
,C6094,DZXHCZMBTDWPGU-UHFFFAOYSA-N,Cc1ccc2c(c1)sc(n2)N,-2.661558888,2.7681,164.228
,C3749,DZYWWPYQEORXMK-UHFFFAOYSA-L,c1ccc(cc1)CCN1CCN2C(C1)CCc1c2cccc1.Cl,-4.291733464,4.171,328.879
,C3138,FAEFMMUOKVKFBE-UHFFFAOYSA-N,C[N+]1(CCCC[N+]2(C)CCCC2)CC2CCCC(C1)C2.[I-].[I-],-4.936101857,-2.8008,534.301
,C6606,FAJSZEYRHIXUPR-UHFFFAOYSA-N,C1CCN(CC1)SSN1CCCCC1,-2.341347657,3.0454,232.409
,C6621,FAKIVHFFVVPOKL-GQCTYLIASA-N,COC(=O)c1c(OC)cc(cc1OC)Cc1cnc(nc1N)N,-2.332913502,2.198,318.328
,C7729,FAKRSMQSSFJEIM-RQJHMYQMSA-N,ONC(=O)/C=C/c1ccc(c(c1)OC)OC,-1.576426962,1.6133,223.225
,C8321,FAKTUTGTQOLHEK-UHFFFAOYSA-N,SC[C@H](C(=O)N1CCC[C@H]1C(=O)O)C,-1.07623908,0.5658,217.285
,C8655,FAMQYLIEZDSLBL-MBHUSPCXSA-N,COCCC[NH2+]CC(C1COc2c(O1)cccc2)O.[Cl-],-0.730515005,-3.2088,303.782
,C5938,FAOZLTXFLGPHNG-JQJXMUTFSA-N,C=CCN1CC[C@@]23[C@H]([C@H]1Cc1c3cc(cc1)O)CCCC2.Br,-2.760087648,4.5326,364.32
,C431,FAPJKUXLWRHQRD-UHFFFAOYSA-N,O=C1C=C[C@]2(C(=C1)[C@@H](C)C[C@@H]1[C@]2(F)[C@H](O)C[C@]2([C@H]1CC[C@]2(O)C(=O)C)C)C,-4.0999999,2.9233,376.462
,C4260,FAPQAMNNSKCDTL-UHFFFAOYSA-N,CN(CCC12CC3CC(C1)CC(C2)(C3)CCN(C)C)C.Cl.Cl,-3.913344453,5.0804,351.398
,C6945,FAPSXSAPXXJTOU-UHFFFAOYSA-L,CCC(C(CO)(CO)CC)C,-2.125635762,1.4135,160.254
,C9517,FAPWYRCQGJNNSJ-UBKPKTQASA-L,C[N+](CCCCCC[N+](C)(C)C)(C)C.[Br-].[Br-],0.441058748,-4.0328,362.188
,C9376,FASHSDVYBORDDB-UHFFFAOYSA-N,OCC([C@H](C(=O)NCCC(=O)[O-])O)(C)C.OCC([C@H](C(=O)NCCC(=O)[O-])O)(C)C.[Ca+2],0.321904276,-3.9742,476.532
,C6522,FATUQANACHZLRT-XBQZYUPDSA-L,CC1COn2c1nc1ccccc1c2=O,-2.393587016,0.9422,202.209
,C9354,FAVIQMSTEFBUJX-UHFFFAOYSA-N,OC[C@H]([C@H]([C@@H]([C@H]([C@H](C(=O)[O-])O)O)O)O)O.OC[C@H]([C@H]([C@@H]([C@H]([C@H](C(=O)[O-])O)O)O)O)O.[Ca+2],0.309428276,-10.9338,490.425
,C7714,FAYAYUOZWYJNBD-UHFFFAOYSA-N,CCCOc1ccccc1C(=O)N,-1.5896831,2.2746,179.216
,C7766,FAYHFDMHIOTESQ-UHFFFAOYSA-L,Nc1ccc2c(c1)scn2,-1.550943161,2.4597,150.201
,C2890,FAYONKYSJFJACM-GEEYTBSJSA-M,C[N+](CCC1c2ccccc2c2c1cccc2)(CCCCCC[N+](CCC1c2ccccc2c2c1cccc2)(C)C)C.[Br-].[Br-],-5.240574624,3.1128,718.646
,C2648,FBCSVCRUGIQTDR-UHFFFAOYSA-L,CC[N+](Cc1ccccc1)(CCOc1ccc(cc1)/C=C/c1ccccc1)CC.[Br-],-5.578912099,3.2966,466.453
,C3467,FBDVPECXXASKAO-UHFFFAOYSA-N,[O-]S(=O)(=O)C(CC(S(=O)(=O)[O-])c1ccccc1)Nc1ccc(cc1)S(=O)(=O)Nc1ccccn1.[Na+].[Na+],-4.566718716,5.2306,571.555
,C9314,FBFBNGJZFXSFFY-UHFFFAOYSA-N,CNCCNCCSP(=O)(O)O.CNCCNCCSP(=O)(O)O.O.O.O.O.O,0.285238667,0.4847,518.522
,C7193,FBFCVJNZKBVVRP-UHFFFAOYSA-N,OC(=O)CCS(=O)(=O)CCC(=O)O,-1.966606854,0.4314,210.205
,C340,FBHPVOLRIXZZMD-UHFFFAOYSA-N,CC(=O)OCN1C(=O)NC(C1=O)(c1ccccc1)c1ccccc1,-4.4699998,2.2693,324.331
,C8205,FBHSPRKOSMHSIF-GRMWVWQJSA-N,COC(=O)C(Cc1ccc(cc1)Cl)N,-1.180506144,2.0831,213.661
,C4048,FBIVTBYHXAWRQD-UHFFFAOYSA-N,CC(=O)OCC(=O)[C@@]12N=C(O[C@@H]1C[C@@H]1[C@]2(C)C[C@H](O)[C@H]2[C@H]1CCC1=CC(=O)C=C[C@]21C)C,-4.074411366,1.9988,441.517
,C8273,FBKSTVYBFCTVIO-UHFFFAOYSA-N,CCC(C#CCl)(C=C)O,-1.118769631,1.5132,144.599
,C9612,FBLJZPQLNMVEMR-UHFFFAOYSA-N,OCCOCC/N=C(/CSS(=O)(=O)O)\N,0.587863808,0.6696,258.316
,C5982,FBMBNGLPIIIJDV-PKLMIRHRSA-N,CCCc1nc2c([nH]1)cccc2,-2.730500463,2.5154,160.216
,C3544,FBMVFHKKLDGLJA-UHFFFAOYSA-N,Oc1c(O)ccc2c1c1cccc3c1[C@@H](C2)[NH+](CC3)CC1CC1.[Cl-],-4.487152282,0.7862,343.847
,C7993,FBOZXECLQNJBKD-CYBMUJFWSA-N,CC1NC(C)SC(S1)C,-1.367880166,2.4228,163.304
,C6759,FBOZXECLQNJBKD-UHFFFAOYSA-N,OC(=O)CC[C@H](C(=O)O)NC(=O)c1ccc(cc1)N(Cc1cnc2c(n1)c(N)nc(n2)N)C,-2.242509883,1.8217,454.439
,C6760,FBOZXECLQNJBKD-ZDUSSCGKSA-N,OC(=O)CCC(C(=O)O)NC(=O)c1ccc(cc1)N(Cc1cnc2c(n1)c(N)nc(n2)N)C,-2.242509883,1.8217,454.439
,C6758,FBPFZTCFMRRESA-OMMKOOBNSA-N,OC(=O)CC[C@@H](C(=O)O)NC(=O)c1ccc(cc1)N(Cc1cnc2c(n1)c(N)nc(n2)N)C,-2.242509883,1.8217,454.439
,C1654,FBQTWGHLMQUOQL-UHFFFAOYSA-N,OC[C@@H]([C@H]([C@H]([C@H](CO)O)O)O)O,1.09,-3.5854,182.172
,C251,FBRAWBYQGRLCEK-AVVSTMBFSA-N,CCC(=O)OCN1C(=O)NC(C1=O)(c1ccccc1)c1ccccc1,-4.9099998,2.6594,338.357
,C2455,FBRJYBGLCHWYOE-UHFFFAOYSA-N,CCCC(=O)O[C@@]1([C@@H](C)C[C@@H]2[C@]1(C)CC(=O)[C@]1([C@H]2CCC2=CC(=O)C=C[C@]12C)F)C(=O)CCl,-5.902098277,4.7014,478.981
,C1198,FBRXLSJWUNGLDK-UHFFFAOYSA-N,OC(=O)c1ccccc1C(F)(F)F,-1.6,2.4036,190.119
,C6210,FBSAITBEAPNWJG-UHFFFAOYSA-N,CCC(COC(=O)N)(COC(=O)NC(C)C)C,-2.590759694,2.7238,246.303
,C7026,FBSFWRHWHYMIOG-UHFFFAOYSA-N,CC(=O)Oc1ccccc1OC(=O)C,-2.072052014,1.5372,194.184
,C1318,FBSKJMQYURKNSU-ZLSOWSIRSA-N,COC(=O)c1cc(O)c(c(c1)O)O,-1.24,0.59,184.146
,C4297,FBSMERQALIEGJT-UHFFFAOYSA-N,OC[C@H]1O[C@@H](OCCc2ccc(c(c2)O)O)[C@@H]([C@H]([C@@H]1OC(=O)/C=C/c1ccc(c(c1)O)O)O[C@@H]1O[C@@H](C)[C@@H]([C@H]([C@H]1O)O)O)O,-3.876518311,-1.0159,624.587
,C2387,FBTUMDXHSRTGRV-WKBHQTPHSA-N,CN(CCCN1c2ccccc2Sc2c1cc(Cl)cc2)C.Cl,-6.049561626,5.7614,355.325
,C1881,FBUKVWPVBMHYJY-UHFFFAOYSA-N,COc1cccc2c1C(=O)c1c(O)c3[C@@H](O[C@H]4C[C@H](N)[C@@H]([C@@H](O4)C)O)C[C@](Cc3c(c1C2=O)O)(O)/C(=N\NC(=O)c1ccccc1)/C,-8.04292561,3.337,645.656
,C793,FBVLYAYUSWWENM-UHFFFAOYSA-N,CCCCCCCCC(=O)O,-2.75,2.8216,158.238
,C8461,FCCDDURTIIUXBY-UHFFFAOYSA-N,[O-][N+](=O)c1cn(c(n1)Cl)C,-0.932291531,1.5049,161.546
,C6301,FCFNRCROJUBPLU-UYBNATROSA-N,NC(=O)CCCCC1SSCC1,-2.533586395,2.8861,205.341
,C1831,FCJSHPDYVMKCHI-UHFFFAOYSA-N,C[C@@H]1OC(=O)C(NC(=O)[C@H](OC(=O)[C@@H](NC(=O)[C@H](C)OC(=O)[C@H](NC(=O)[C@H](OC(=O)[C@@H](NC(=O)[C@@H](OC(=O)[C@H](NC(=O)[C@H](OC(=O)[C@@H](NC1=O)C(C)C)C(C)C)C(C)C)C)C(C)C)C(C)C)C(C)C)C(C)C)C(C)C)C(C)C,-8.624900759,4.3161,1111.32
,C761,FCKJYANJHNLEEP-SRLFHJKTSA-N,O=C(c1ccccc1)Oc1ccccc1,-2.8499999,2.9058,198.217
,C1823,FCNBIVGBRLYZIR-UHFFFAOYSA-N,O[C@H]1CCC(=C)/C(=C\C=C\2/CCC[C@]3([C@H]2CC[C@@H]3[C@@H](CCC(C(O)(C)C)O)C)C)/C1,-8.731026256,5.7047,416.636
,C4934,FCPVYOBCFFNJFS-LQDWTQKMSA-M,CCCC(COC(=O)N)(COC(=O)NC(C#C)(C)C)C,-3.432673082,3.1173,284.351
,C8786,FCPZQUBCYSQZFZ-FEXGMLSNSA-N,O=C(Cc1ccccc1)N[C@@H]1C(=O)N2[C@@H]1SC([C@@H]2C(=O)[O-])(C)C.[Na+],-0.535288039,-0.1451,356.372
,C8406,FCSHMCFRCYZTRQ-UHFFFAOYSA-N,O=[NH+]/C=c/1\n(COC/C=C\c2ccccc2)ccn1C.[Cl-],-0.974886803,-2.6158,307.775
,C4696,FCVKJABRPBJPHG-UHFFFAOYSA-N,S=C(Nc1ccccc1)Nc1ccccc1,-3.610420173,3.6415,228.313
,C7674,FCWMZGOTKKOFPK-UHFFFAOYSA-N,CNC(=O)Cn1c(CC)cnc1[N+](=O)[O-],-1.611596441,1.0138,212.206
,C3754,FDAYLTPAFBGXAB-UHFFFAOYSA-N,OC(=O)COc1ccc(c(c1Cl)Cl)C(=O)c1cscc1,-4.287045685,3.7493,331.171
,C5391,FDCBVWSPDQQNRQ-UHFFFAOYSA-N,ClCCN(CCCl)CCCl,-3.106613678,2.0048,204.525
,C3550,FDDDEECHVMSUSB-UHFFFAOYSA-N,CCCc1cc(OCCCCCNCCSS(=O)(=O)O)nc2c1cccc2,-4.481951358,5.3337,412.567
,C1285,FDGQSTZJBFJUBT-UHFFFAOYSA-N,Nc1ccc(cc1)S(=O)(=O)N,-1.36,2.2785,172.205
,C975,FDIWARBGJVIFJY-UHFFFAOYSA-N,O=c1[nH]cnc2c1[nH]cn2,-2.29,-0.3538,136.111
,C7099,FDJAMXYLIRPRIS-UHFFFAOYSA-N,CN(C1(C)C2CCC(C1C)C2)C,-2.035964862,2.3727,167.291
,C8022,FDJOLVPMNUYSCM-WZHZPDAFSA-L,CC(=O)NNC(=O)c1ccccn1,-1.331652647,0.6443,179.176
,C7101,FDLFMPKQBNPIER-UHFFFAOYSA-N,OC[C@H]1O[C@@H]([C@@H]([C@@H]1OP(=O)(O[C@@H](CNC(=O)CC[C@@]1(C)C2=N[C@H]([C@@H]1CC(=O)N)[C@]1(C)[N-]/C(=C(/C)\C3=N/C(=C\C4=N/C(=C\2/C)/[C@@H](CCC(=O)N)C4(C)C)/[C@H]([C@]3(C)CC(=O)N)CCC(=O)N)/[C@H]([C@]1(C)CC(=O)N)CCC(=O)N)C)[O-])O)n1cnc2c1cc(C)c(c2)C.[C-]#N.[Co+3],-2.035153591,6.71188,1355.37
,C263,FDMZYWCLSJXOCU-UHFFFAOYSA-N,Cc1cccc(c1)Oc1cccc(c1)C,-4.8499999,4.0957,198.26
,C7818,FDOGNTWNJXHXNZ-MZIRSVLISA-N,NC1=NCC(O1)CN1CCN(CC1)c1ccccn1,-1.516383688,0.0559,261.323
,C2543,FDPIMTJIUBPUKL-UHFFFAOYSA-N,O[C@H]([C@H](C(=O)O)O)C(=O)O.COc1ccc2c(c1)[C@]13CCCC[C@H]3[C@@H](C2)N(CC1)CCC(C)C,-5.74760462,2.615,477.59
,C1524,FDPVTENMNDHFNK-UHFFFAOYSA-N,CCC(=O)CC,-0.28,1.3755,86.1323
,C5471,FDQGNLOWMMVRQL-UHFFFAOYSA-N,O=C(c1ccccc1N)Nc1ccccc1,-3.057338847,3.1753,212.247
,C1050,FDTSMJLKASTENG-UHFFFAOYSA-N,C=CCC1(CC=C)C(=O)NC(=O)NC1=O,-2.0599999,1.1486,208.214
,C4009,FDTSYVCHZCQUMG-UHFFFAOYSA-N,CCC(=O)C(C(C[NH+](C)C)C)(c1ccccc1)c1ccccc1.[Br-],-4.107171022,-0.2636,390.357
,C6213,FDWRKMPNEIXNOE-UHFFFAOYSA-N,OC(CN1CCN(CC1)c1ccccc1)COc1cccc(c1)C(=O)C,-2.588133899,2.454,354.443
,C8519,FDXOWEXWCPILKM-UHFFFAOYSA-N,CC1=NS(=O)(=O)c2c(N1)cccc2,-0.880123604,1.8736,196.226
,C8059,FEBLZLNTKCEFIT-VSXGLTOVSA-N,OCC(COc1ccccc1)(O)C,-1.310228781,0.8087,182.216
,C3414,FEBOTPHFXYHVPL-UHFFFAOYSA-N,OCC(=O)[C@@]12OC(O[C@@H]1C[C@@H]1[C@]2(C)C[C@H](O)[C@]2([C@H]1C[C@@H](C1=CC(=O)C=C[C@]21C)F)F)(C)C,-4.616199666,2.3668,452.488
,C2825,FEBQXMFOLRVSGC-UHFFFAOYSA-N,Fc1ccc(cc1)C(=O)CCCN1CCC(CC1)n1c(=O)[nH]c2c1cccc2,-5.320175878,3.7066,381.443
,C9758,FEGVSPGUHMGGBO-SREVYHEPSA-N,c1ccc(cn1)CNCc1cccnc1,0.700586413,2.1573,199.252
,C7615,FEJIIZAOQRTGPC-UHFFFAOYSA-N,COc1ccccc1/C=C\C(=O)O,-1.651976129,1.793,178.185
,C5796,FEJKLNWAOXSSNR-UHFFFAOYSA-N,O=C1NCNC1(c1ccccc1)c1ccccc1,-2.852579862,2.2647,238.284
,C3865,FELGAPTYPKHPJC-UHFFFAOYSA-N,CC(=O)Nc1ccc(cc1)OC(=O)c1ccccc1OC(=O)C,-4.194942861,2.8625,313.305
,C7147,FEMYUNCOXYVXAB-UHFFFAOYSA-N,COc1cc(ccc1O)C(=O)COC(=O)c1cccnc1,-2.000409889,1.8355,287.267
,C7500,FENPQSUAZFQQSO-UHFFFAOYSA-L,CCCCC(COC(=O)N)(CO)C,-1.735468118,1.9708,189.252
,C2716,FEPNBMKNKFJTBE-UHFFFAOYSA-N,CC[N+]1(CCOCC[N+]2(CC)CCCCC2)CCCCC1.[Br-].[Br-],-5.482194705,-3.0302,458.315
,C7071,FEQOAJFIPPBRLL-UHFFFAOYSA-N,CCN1C(=O)c2ccccc2CS1(=O)=O,-2.051657921,2.0108,225.264
,C9019,FEQOTXWZPMPKGW-UHFFFAOYSA-N,CC(COc1ccc(cc1N)[As](=O)(O)O)O,-0.160898377,-0.8294,291.133
,C1736,FERIUCNNQQJTOY-UHFFFAOYSA-N,O=C1c2ccccc2c2c3c1ccc(c3ccc2)c1ccc2c3c1cccc3c1c(C2=O)cccc1,-11.53102072,8.0828,458.506
,C1536,FEUBUXUFKHXRKO-UHFFFAOYSA-N,CCCC(=O)O,-0.19,0.8711,88.1051
,C2210,FEWJPZIEWOKRBE-JCYAYHJZSA-N,O=C(N1c2ccccc2Sc2c1nccc2)OCCOCCN1CCCCC1.Cl,-6.466267359,5.1283,435.967
,C9615,FEWVYFMOKCOJNJ-UHFFFAOYSA-N,O[C@H]([C@H](C(=O)O)O)C(=O)O,0.588582801,-2.1226,150.087
,C5747,FEXLEYOXHRRAET-UHFFFAOYSA-M,Nc1ccc(cc1)C(=O)Nc1cc(C)cc(n1)C,-2.881487279,3.1871,241.288
,C4172,FEYDRETXYFWGJR-UHFFFAOYSA-N,CCCCCCCCC1(C)OC(=O)[N-]C1=O.[Na+],-3.988457924,2.8767,249.282
,C3097,FFDZEZLZHNZTBO-UHFFFAOYSA-N,[O-][N+](=O)CC(c1ccc(cc1)NC(=O)C)Sc1ccc(cc1)C,-4.99141278,4.6597,330.401
,C5032,FFEARJCKVFRZRR-SCSAIBSYSA-N,Clc1ccc(cc1)SCC/N=C(/CSS(=O)(=O)O)\N,-3.362307966,4.1064,340.87
,C1501,FFEYDPUBDJREFF-UHFFFAOYSA-N,CSCC[C@H](C(=O)O)N,-0.41999999,0.8517,149.211
,C6543,FFFHZYDWPBMWHY-VKHMYHEASA-N,OC(COc1cccc(c1)C(=O)C)C[NH2+]CCc1ccccc1.[Cl-],-2.376570763,-1.561,349.852
,C9853,FFFIRKXTFQCCKJ-UHFFFAOYSA-N,N[C@H](C(=O)O)CCS,0.812924972,0.4185,135.185
,C6581,FFGKFDRZZAJYCH-UHFFFAOYSA-N,OC(=O)c1c(C)cc(cc1C)C,-2.356545854,2.31,164.201
,C119,FFGPTBGBLSHEPO-UHFFFAOYSA-N,CCCCCCC(=O)OCN1C(=O)NC(C1=O)(c1ccccc1)c1ccccc1,-6.3000002,4.2198,394.464
,C5083,FFHMRUWVKUUENH-UHFFFAOYSA-N,NC(=O)N1c2ccccc2C=Cc2c1cccc2,-3.324197911,4.1525,236.269
,C5935,FFINMCNLQNTKLU-UHFFFAOYSA-N,CN(C(=O)c1cccc(c1O)c1ccccc1)C,-2.76240325,2.761,241.285
,C4987,FFISWZPYNKWIRR-UHFFFAOYSA-N,O=C(Nc1c(I)cc(c(c1I)C(=O)O)I)CCCCC(=O)Nc1c(I)cc(c(c1I)C(=O)O)I,-3.394058247,6.9942,1139.76
,C5147,FFKUDWZICMJVPA-UHFFFAOYSA-N,[O-][n+]1c2ccccc2nc2c1cccc2,-3.2798817,2.8165,196.205
,C8388,FFLPYDKLMZFJEF-UHFFFAOYSA-N,OC(=O)c1ccccc1OP(=O)(O)O,-0.987441311,0.8563,218.101
,C7284,FFNDMZIBVDSQFI-UHFFFAOYSA-N,O=C(c1ccc(cc1)Cl)C=NN1CCOCC1,-1.902914722,1.7786,252.697
,C3587,FFRDTEGDTSKBIT-UHFFFAOYSA-N,Oc1cc(O)c2c(c1)[o+]c(c(c2)O)c1cc(O)c(c(c1)O)O.[Cl-],-4.455725391,-0.3815,338.697
,C1971,FFRVMAQKEPCGOM-UHFFFAOYSA-N,C=CCNc1cnc(nc1)N1CCN(CC1)CCC(c1ccccc1)(c1ccccc1)c1ccccc1,-7.324412843,5.6971,489.654
,C6737,FFSHJQVIKQNKOB-UHFFFAOYSA-N,CC(=O)N1OCc2c(C1)cc(cc2)[N+](=O)[O-],-2.253322369,1.8496,222.197
,C9613,FFTVPQUHLQBXQZ-KVUCHLLUSA-N,OCCNCCCNCCSP(=O)(O)O,0.587920976,0.1557,258.276
,C8445,FFWNQTREFJXEEJ-UHFFFAOYSA-N,CN([C@@H]1C(=O)C(=C([C@@]2([C@H]1C[C@@H]1Cc3c(C(=C1C2=O)O)c(O)ccc3N(C)C)O)O)C(=O)N)C,-0.944371617,0.7303,457.476
,C2315,FFWSICBKRCICMR-UHFFFAOYSA-N,CCCCOc1ccc(cc1)OCC(=O)N(c1ccc(cc1)OC)CCN(CC)CC.Cl,-6.187474971,5.4299,465.025
,C1292,FFXJBGZEAHBHCF-UHFFFAOYSA-N,CC(CCC(=O)C)C,-1.33,2.0116,114.185
,C4282,FFYZLGACXSITOH-UHFFFAOYSA-N,COP(=O)(Oc1ccc(c(c1)C(C)C)[N+](=O)[O-])OC,-3.894325673,4.0211,289.222
,C4831,FGCDXTDNXMUIEB-UHFFFAOYSA-N,C=CCOc1c(cccc1C(=O)N)c1ccccc1,-3.519408118,3.7176,253.296
,C4981,FGLBSLMDCBOPQK-UHFFFAOYSA-N,CNC(=O)c1cc(Br)cc(c1O)C,-3.398497272,2.2136,244.085
,C1466,FGNBZUSQEHJNQG-UHFFFAOYSA-N,CC([N+](=O)[O-])C,-0.62,1.1947,89.0932
,C9261,FGNHWGZYBWJOLZ-UHFFFAOYSA-N,CCCC(CN(C)C)(CO)CO,0.229043907,0.3191,175.269
,C7239,FGNNOAAYCXVNNV-PXQHBHPGSA-N,CC1Oc2ccc(cc2N(C1=O)CC[NH2+]C)Cl.[Cl-],-1.930123503,-2.2839,291.174
,C4418,FGOFNVXHDGQVBG-UHFFFAOYSA-N,C[NH+](C1CC[C@@](c2c1cccc2)(C(=O)N)c1ccccc1)C.[O-]C(=O)/C=C\C(=O)O,-3.790459776,0.5148,410.463
,C8402,FGOUNKZHBOQSNX-UHFFFAOYSA-N,COc1ccccc1NC(=O)C,-0.978689532,1.7266,165.189
,C8604,FGPJTMCJNPRZGF-JXMROGBWSA-N,CCCCN1CCC(CC1)(O)Cc1ccccn1.Cl.Cl,-0.786732512,3.793,321.286
,C5062,FGRDQLLXKJFDOQ-UHFFFAOYSA-N,Oc1ccc(cc1)/C=C/C(=O)c1ccccc1O,-3.339285172,2.9939,240.254
,C2328,FGSJNNQVSUVTPW-UHFFFAOYSA-N,N#CC(c1cccc2c1cccc2)(CC[NH+](CC)CC)CC=C(C)C.[Cl-],-6.146087063,1.27628,370.959
,C7673,FGTLRXFTKHKPRQ-UHFFFAOYSA-N,CNC(Cc1ccccc1OC)C.Cl,-1.612081789,3.0385,215.72
,C7475,FGVITAFIUFLYQJ-UHFFFAOYSA-N,CCCCC(CCC)NCCSS(=O)(=O)O,-1.752819655,3.9426,269.425
,C4366,FGWJRZQNNZVCHR-BCRCDCHUSA-N,COC(=O)c1c(C)ccc(c1OCCCN(C)C)C(C)C,-3.83400203,3.2355,293.401
,C5864,FGXWKSZFVQUSTL-UHFFFAOYSA-N,COC(=O)C1=CO[C@H]([C@H]2[C@@H]1C[C@H]1N(C2)CCc2c1[nH]c1c2cc(c(c1)OC)OC)C,-2.802629495,3.1339,412.479
,C2615,FHADSMKORVFYOS-UHFFFAOYSA-N,Clc1ccc2c(c1)[nH]c(=O)n2C1CCN(CC1)CCCn1c(=O)[nH]c2c1cccc2,-5.635315931,3.2911,425.911
,C1305,FHAFDHUYIWKBCE-UHFFFAOYSA-N,OC1CCCCCCC1,-1.29,2.0916,128.212
,C1946,FHFYDNQZQSQIAI-UHFFFAOYSA-N,O=C(C1c2ccccc2c2c1cccc2)OC1CC[NH+](CC1)CCc1ccccc1.[Cl-],-7.520194427,2.2053,433.97
,C7883,FHGJSJFIQNQBCK-UHFFFAOYSA-N,CCn1cc(C(=O)O)c(=O)c2c1cc(N1CCN(CC1)C)c(c2)F,-1.466393685,1.6134,333.357
,C6632,FHHDPMSYDYZLAP-UHFFFAOYSA-N,COc1ccc(c2c1cccc2)C(=O)CCC(=O)O,-2.326431736,2.8959,258.269
,C7036,FHHFNHFFCVLLHX-MDWZMJQESA-N,CCC(OC(=O)c1ccccc1)(CN(C)C)CN(C)C.Cl,-2.063540311,2.9174,314.851
,C5614,FHHPUSMSKHSNKW-SMOYURAASA-M,CN1CCN(CC1)CC(=O)N/N=C/c1ccc(o1)[N+](=O)[O-],-2.968381497,0.6752,295.294
,C5136,FHIDNBAQOFJWCA-UAKXSSHOSA-N,O[C@@H]1CC[C@]2([C@@H](C1)CC[C@@H]1[C@@H]2C[C@H](O)[C@]2([C@H]1CC[C@@H]2[C@@H](CCC(=O)[O-])C)C)C.[Na+],-3.285151041,3.1432,414.554
,C8512,FHIKZROVIDCMJA-UHFFFAOYSA-N,OC[C@H]1O[C@H]([C@@H]([C@@H]1O)O)n1cc(F)c(=O)[nH]c1=O,-0.883326956,-2.7128,262.192
,C2523,FHIVAFMUCKRCQO-UHFFFAOYSA-N,CCCC(c1ccccc1)(c1ccccc1)C(=O)OCCN(CC)CC.Cl,-5.790995146,5.4598,389.959
,C541,FHKFDOULAQDMMV-UHFFFAOYSA-N,CCOP(=S)(Oc1cc(C)nc(n1)C(C)C)OCC,-3.6400001,4.2353,304.346
,C4100,FHKMETBBEHLTJX-OQKDUQJOSA-N,CCCC(CCC)C[NH2+]Cc1ccccc1.[Cl-],-4.044339491,-0.0296,255.827
,C1812,FHKYKCHMWGFEQE-UHFFFAOYSA-N,CCCCOc1ccc(c2c1cccc2)C(=N)[NH+](CCCCC)CCCCC.[Cl-],-8.933846013,2.7131,419.043
,C2380,FHORWCGUALMRKR-UHFFFAOYSA-N,OCCOCCN1CCN(CC1)CCCN1c2ccccc2Sc2c1cc(cc2)C(F)(F)F.Cl.Cl,-6.059051505,5.8695,554.496
,C3225,FHQAWINGVCDTTG-UHFFFAOYSA-N,CCCCCCCCCCCC[N+]1([O-])CCOCC1,-4.840395795,4.2109,271.439
,C7578,FHRIDUNQMHKUNM-TTWKNDKESA-N,OC(=O)c1ccc(c(c1)S(=O)(=O)N)Cl,-1.684716367,2.4667,235.645
,C4333,FHUBTSLLILWICW-UHFFFAOYSA-N,COc1cc(/C=C/C(=O)CCN2CCN(CC2)CCc2ccccc2)cc(c1OC)OC.Cl.Cl,-3.852707617,5.0249,511.481
,C6435,FHYFQRCUSZETDW-UHFFFAOYSA-N,O=c1[nH]c2ccccc2c(n1)c1ccccc1,-2.453129595,2.5901,222.242
,C4858,FHYICTHJPUZKCU-UHFFFAOYSA-N,c1ccc2c(c1)c1ccccc1CNC2,-3.496834021,3.2856,195.26
,C6924,FHYXHYXRWQFHHO-UHFFFAOYSA-N,ClCCN(C(=O)NC1CS(=O)(=O)CS(=O)(=O)C1)N=O,-2.141054381,1.64,333.77
,C3127,FIADGNVRKBPQEU-UHFFFAOYSA-N,CCCCCCCCCCCCCCNCCSS(=O)(=O)O,-4.945343307,6.2848,353.584
,C2457,FIAFUQMPZJWCLV-UHFFFAOYSA-N,CN1CCC(=C2c3ccsc3CCc3c2cccc3)CC1,-5.900867207,4.3121,295.442
,C1723,FICAQKBMCKEFDI-UHFFFAOYSA-N,O=C(Nc1cccc(c1)C(=O)Nc1cc(ccc1C)C(=O)Nc1ccc(c2c1c(cc(c2)S(=O)(=O)O)S(=O)(=O)O)S(=O)(=O)O)Nc1cccc(c1)C(=O)Nc1cc(ccc1C)C(=O)Nc1ccc(c2c1c(cc(c2)S(=O)(=O)O)S(=O)(=O)O)S(=O)(=O)O,-13.25629814,13.666,1297.28
,C8352,FIERVDLXKNFTPK-UHFFFAOYSA-N,Cc1onc(c1)C,-1.029065931,1.2914,97.1152
,C1865,FIEYHAAMDAPVCH-UHFFFAOYSA-N,CC(Nc1ccnc2c1ccc(c2)Cl)CN1CCN(CC1)CC(Nc1ccnc2c1ccc(c2)Cl)C,-8.19387684,6.0302,523.5
,C7348,FIFASUIQVWVKCG-BTJKTKAUSA-N,Cc1nc(=O)c2c([nH]1)cccc2,-1.844761935,1.2315,160.173
,C2324,FIFLUHNFRVJEDU-UHFFFAOYSA-M,CN1CC[NH+](CC1)C1Cc2ccccc2Sc2c1cc(cc2)[N+](=O)[O-].[O-]C(=O)/C=C\C(=O)O,-6.162962495,2.5809,471.526
,C4409,FIGNDHCQIMVMAZ-UHFFFAOYSA-N,C=CC[N+](CCOCCC1CCC2CC1C2(C)C)(CC)CC.[Br-],-3.799736514,1.512,388.426
,C2362,FIISKTXZUZBTRC-UHFFFAOYSA-N,CCCCCCCCOc1ccc(cc1)C(=O)CCN1CCCCC1.Cl,-6.092087818,6.2245,381.98
,C4454,FIIUIEQMEKWLPT-UHFFFAOYSA-N,c1ccc(cc1)c1nc2c(o1)cccc2,-3.759430964,3.4948,195.217
,C8381,FIKAKWIAUPDISJ-UHFFFAOYSA-L,OCCn1c(C)cnc1[N+](=O)[O-],-0.993842433,0.6152,171.154
,C9465,FIQMHBFVRAXMOP-UHFFFAOYSA-N,C[n+]1ccc(cc1)c1cc[n+](cc1)C.[Cl-].[Cl-],0.382191667,-4.9894,257.159
,C4638,FISILDKYNPNRFV-UHFFFAOYSA-M,O=P(c1ccccc1)(c1ccccc1)c1ccccc1,-3.646816211,3.326,278.285
,C6408,FIUGYEVWNQNDDO-UHFFFAOYSA-N,O=C(C(c1ccccc1)O)OC1CC2CCC(C1)[N+]2(C)Cc1ccc(cc1)Br.[Br-],-2.469971698,1.3287,525.273
,C7989,FIVDTHQNVVFVLG-UHFFFAOYSA-N,O=C(C(=O)c1c[nH]c2c1cccc2)N(C)C,-1.370676423,1.4388,216.236
,C5905,FIVHOHCAXWQPGC-UHFFFAOYSA-N,ClCC(Cc1ccccc1)OC(=O)N,-2.774630808,2.6321,213.661
,C7425,FIVPIPIDMRVLAY-RBJBARPLSA-N,CN(CCOC(=O)COc1ccc(cc1)Cl)C.Cl,-1.800215416,2.6256,294.174
,C4597,FIWNTYXJJOOZFV-UHFFFAOYSA-N,OC[C@@]12SS[C@@]3(N(C1=O)[C@@H]1[C@@H](O)C=CC=C1C3)C(=O)N2C,-3.668632165,-0.4279,326.391
,C6965,FJAQNRBDVKIIKK-LFLQOBSNSA-N,C=CCOc1ccccc1C(=O)N(C)C,-2.110900853,1.9532,205.253
,C1962,FJBFPHVGVWTDIP-UHFFFAOYSA-N,CO[C@@H]1[C@@H](OC(=O)c2ccc([nH]2)C)[C@@H](O)[C@@H](OC1(C)C)Oc1ccc2c(c1Cl)oc(=O)c(c2O)NC(=O)c1ccc(c(c1)CC=C(C)C)O,-7.39152981,5.4433,697.128
,C1336,FJFRCZLGKLPJHB-UHFFFAOYSA-N,BrCBr,-1.17,1.7337,173.835
,C4702,FJGLVTYWNCZPBL-UHFFFAOYSA-N,CCCC(COC(=O)N(C)C)(COC(=O)NCC)C,-3.605175249,2.628,274.357
,C3594,FJJJJRAPZCRYGA-UHFFFAOYSA-N,OC(=O)Cc1ccc2c(c1)nc(s2)c1ccc(cc1)Cl,-4.449106843,4.2438,303.763
,C8628,FJKFBLLIOVQLFS-UHFFFAOYSA-L,FCCCC#N,-0.766816928,1.25968,87.0955
,C4378,FJKIXWOMBXYWOQ-UHFFFAOYSA-N,[O-]C(=O)c1ccccc1.[O-]C(=O)c1ccccc1.[Hg+2],-3.822168462,0.0977,442.817
,C1410,FJKROLUGYXJWQN-UHFFFAOYSA-N,CCOC=C,-0.85000002,1.1664,72.1057
,C1268,FJLBFSROUSIWMA-UHFFFAOYSA-N,Oc1ccc(cc1)C(=O)O,-1.41,1.0904,138.121
,C7069,FJNJUBSOKARRGE-UHFFFAOYSA-N,O=C(C(c1cccnc1)(C)C)c1cccnc1,-2.052529893,2.6371,226.274
,C3886,FJPQFRXOQNVROM-UUOKLVDSSA-N,CCCCCOc1ccc(cc1OCC)C=CC(=O)NO,-4.184104124,3.5638,293.358
,C2695,FJPYVLNWWICYDW-UHFFFAOYSA-M,[O-]C(=O)/C=C\C(=O)O.C[NH+](CCOC1C=CC2=C(Cc3c1cccc3)CCC=C2)C,-5.510563997,1.0248,411.491
,C7283,FJQXCDYVZAHXNS-LMOVPXPDSA-N,O=C1[N-]C(=O)NC1(c1ccccc1)c1ccccc1.[Na+],-1.905400175,2.213,274.25
,C4331,FJQXCDYVZAHXNS-UHFFFAOYSA-N,CCC(=O)C(c1ccccc1)(c1ccccc1)C[C@@H](N(C)C)C.Cl,-3.853222647,5.094,345.906
,C8837,FJQXCDYVZAHXNS-UNTBIKODSA-N,CCC(=O)C(c1ccccc1)(c1ccccc1)CC(N(C)C)C.Cl,-0.459783139,5.094,345.906
,C4330,FJVAAURIDNIYAE-BJMVGYQFSA-N,CCC(=O)C(c1ccccc1)(c1ccccc1)C[C@H]([NH+](C)C)C.[Cl-],-3.853222647,-0.1211,345.906
,C6048,FJVAQPINJBFBLI-UHFFFAOYSA-N,[O-][N+](=O)c1ccc(o1)/C=N/N(C(=O)N)CCO,-2.685187978,1.1182,242.189
,C8420,FJVSTYFZOUSZCS-UHFFFAOYSA-N,Cn1cnc2c(c1=O)cccc2,-0.959331577,0.9335,160.173