Name,Compound ID,InChIKey,SMILES,logS,logP,MW
,C3016,KVKFRMCSXWQSNT-UHFFFAOYSA-N,Nc1ccc(cc1)C(c1ccccc1)(C(=O)OC1CC2CCC(C1)[N+]2(C)Cc1ccccc1)O.[Br-],-5.094893098,1.9321,537.488
,C5885,KVKJFNUGVOFNGU-UHFFFAOYSA-N,CC(C(Cc1ccc(cc1)Cl)(O)C)CN(C)C,-2.78836605,2.8312,255.784
,C9928,KVLQSJWHJRGPQB-QXMHVHEDSA-N,CNCCNC,1.054757982,0.207,88.1515
,C3496,KVNCMNVGQHEHGC-UHFFFAOYSA-N,OC(=O)C(CC(=O)O)(CC(=O)O)O.CCN(CCOCCOC(=O)C(c1ccccc1)(CC)CC)CC,-4.54047027,2.3975,527.604
,C4710,KVNYFPKFSJIPBJ-UHFFFAOYSA-N,CC(NC(=O)/C(=C(\c1ccccc1)/C)/C)C,-3.596721019,3.3955,217.307
,C2144,KVOJTUXGYQVLAJ-UHFFFAOYSA-N,CC(N(C(C)C)CCSC(=O)N1c2cccnc2Sc2c1cccc2C(F)(F)F)C,-6.674466653,6.7401,455.56
,C634,KVPULOQUNZXTMV-UHFFFAOYSA-N,CCc1ccccc1CC,-3.28,2.8114,134.218
,C5141,KVUAALJSMIVURS-ZEDZUCNESA-L,O=c1cc(C)c2c(o1)cc(c(c2)O)O,-3.28368559,1.5126,192.168
,C4052,KVWNWTZZBKCOPM-UHFFFAOYSA-M,Cc1ccccc1OCC[NH2+]CCOc1ccccc1C.[Cl-],-4.07148412,-0.6714,321.842
,C6831,KVYGGMBOZFWZBQ-UHFFFAOYSA-N,O=CN1C(CNc2ccc(cc2)C(=O)N[C@H](C(=O)[O-])CCC(=O)[O-])CNc2c1c(=O)nc([nH]2)N.[Ca+2],-2.187714347,-1.5165,511.501
,C3599,KVZJLSYJROEPSQ-HTQZYQBOSA-N,Cc1ccc(cc1)S(=O)(=O)[O-].CC[N+](Cc1ccccc1Br)(C)C,-4.44418946,5.0253,414.357
,C5859,KVZYKZBYZVKXNI-STOWLHSFSA-N,O=C(c1cccnc1)OCc1ccccc1,-2.806025193,2.4386,213.232
,C385,KWASCACKNUFQKQ-UHFFFAOYSA-N,C[C@@H]1CCCC[C@H]1C,-4.27,2.8326,112.213
,C6797,KWAYEPXDGHYGRW-UHFFFAOYSA-N,O=C1C[C@@H]2C([C@]1(CC2)CS(=O)(=O)O)(C)C.CCN(CCn1cnc2c1c(=O)n(C)c(=O)n2C)CC,-2.214808199,2.1259,511.635
,C5555,KWCDIRFSULAMOC-UHFFFAOYSA-N,NCCCC12CC3CC(C2)CC(C1)C3.Cl,-3.011086906,4.444,229.789
,C7893,KWDNTYRMVNFPGJ-UHFFFAOYSA-N,NC(=O)c1cccc(c1)[N+](=O)[O-],-1.461022553,1.9172,166.134
,C4420,KWGRBVOPPLSCSI-PSASIEDQSA-N,BrCC(=O)C12CC3CC(C2)CC(C1)C3,-3.788007954,3.1668,257.167
,C1992,KWGRBVOPPLSCSI-UHFFFAOYSA-N,C1CCC(CC1)CCNC1CCC(CC1)NCCC1CCCCC1.CC(=O)O.CC(=O)O,-7.189373813,6.3812,454.686
,C1499,KWILGNNWGSNMPA-UHFFFAOYSA-N,CN[C@@H]([C@H](c1ccccc1)O)C,-0.41999999,1.7188,165.232
,C8780,KWIUHFFTVRNATP-UHFFFAOYSA-O,CNC(C(c1ccccc1)O)C,-0.54646905,1.7188,165.232
,C7190,KWJDGWGMDAQESJ-UHFFFAOYSA-N,CC1Cc2cccc(c2C(=O)O1)O,-1.969842649,1.4936,178.185
,C1625,KWKAKUADMBZCLK-UHFFFAOYSA-N,OC(=O)C[N+](C)(C)C,0.72000003,-0.2228,118.154
,C7822,KWOLFJPFCHCOCG-UHFFFAOYSA-N,COc1cc(ccc1OC)CC(O)C,-1.513926341,1.6271,196.243
,C346,KWOZLQNORHAQOY-UHFFFAOYSA-L,CCCCCCC=C,-4.4400001,3.1428,112.213
,C1309,KWPNNZKRAQDVPZ-UHFFFAOYSA-N,CC(=O)c1ccccc1,-1.28,1.8892,120.149
,C9451,KWPUZGACLSKSKM-UHFFFAOYSA-L,CCC[N+](CCOCC[N+](CC)(C)C)(CC)CC.[Br-].[Br-],0.376467487,-3.6261,420.267
,C3289,KWTQSFXGGICVPE-WCCKRBBISA-N,S=C(Nc1ccccc1C)Nc1ccccc1C,-4.749897279,4.2583,256.366
,C9362,KWTSXDURSIMDCE-QMMMGPOBSA-N,CC[N+](CCOC(C[N+](CC)(C)C)C)(C)C.[I-].[I-],0.313166279,-4.4079,486.215
,C9730,KWTSXDURSIMDCE-UHFFFAOYSA-N,OC(=O)[C@H](CCCN=C(N)N)N.Cl,0.676413797,1.3548,210.662
,C8747,KWXSCVLEALEWOQ-UHFFFAOYSA-N,C[C@@H](Cc1ccccc1)N,-0.583111127,2.2766,135.206
,C8696,KXCQDIWJQBSUJF-UHFFFAOYSA-N,CC(Cc1ccccc1)N,-0.683385747,2.2766,135.206
,C9710,KXDAEFPNCMNJSK-UHFFFAOYSA-N,NCCNCCSP(=O)(O)O.O,0.661129351,0.3875,218.212
,C5980,KXEHYHACSHCZFC-STYNFMPRSA-N,c1ccc(cc1)c1cscn1,-2.731753116,2.8101,161.224
,C1381,KXEHYHACSHCZFC-VOMIJIAVSA-N,NC(=O)c1ccccc1,-0.95999998,1.4858,121.137
,C4552,KXGVEGMKQFWNSR-ASMMDWMDSA-N,N#C[C@]1(CC[C@H](c2c1cccc2)[NH+](C)C)c1ccccc1.[Cl-],-3.693919955,-0.52032,312.836
,C4551,KXGWXVVNYQOMQZ-UHFFFAOYSA-M,N#C[C@@]1(CC[C@H](c2c1cccc2)[NH+](C)C)c1ccccc1.[Cl-],-3.693919955,-0.52032,312.836
,C464,KXGYVTYDPUHCRZ-UHFFFAOYSA-N,O[C@H]1CC[C@]2([C@H](C1)CC[C@@H]1[C@@H]2C[C@@H](O)[C@]2([C@H]1CC[C@@H]2[C@H](CCC(=O)O)C)C)C,-3.95,4.4779,392.572
,C8635,KXJCBPYHSBXEBT-OCIYDRMTSA-N,CCc1cc(c2c1cccc(c2)C(C)C)S(=O)(=O)[O-].[Na+],-0.758625092,4.4621,300.348
,C2337,KXKAXOZWSFAJTG-UHFFFAOYSA-N,CCCCOc1ccc(cc1)OCC(=O)N(c1cc(OC)c(c(c1)OC)OC)CCN(CC)CC.Cl,-6.133640661,5.4471,525.077
,C4128,KXKVLQRXCPHEJC-UHFFFAOYSA-N,C#CCN1CC[C@@]23[C@H]([C@H]1Cc1c3cc(cc1)OC)CCCC2.Br,-4.020483636,4.2828,376.331
,C8434,KXLNFFBTSVJQCR-UHFFFAOYSA-N,CCP(=O)(OC(C)C)F,-0.949815715,2.5939,154.12
,C1607,KXOZJFGEGGNJDX-UHFFFAOYSA-N,COC(=O)C,0.51999998,0.1793,74.0785
,C7418,KXPXJGYSEPEXMF-WYHSTMEOSA-N,FC(c1cccc(c1)C1CNCCO1)(F)F.Cl,-1.804566983,3.4971,267.675
,C5756,KXQOFXMOHFZTQD-UHFFFAOYSA-L,CCCCC1(CCCC)C(=O)NC(=O)NC1=O,-2.875609196,2.3768,240.299
,C8078,KXROTPXCYDXGSC-UHFFFAOYSA-N,OC[C@H](c1ccccc1)C(=O)OC1C[C@@H]2N([C@H](C1)[C@@H]1[C@H]2O1)C.Cl,-1.290694588,1.658,339.814
,C9481,KXRZBTAEDBELFD-UHFFFAOYSA-N,Cc1[n+](CCC[N+](C)(C)C)ccc2c1cccc2.[Br-].[Br-],0.393414435,-3.46,404.183
,C6516,KXUHSQYYJYAXGZ-UHFFFAOYSA-N,CC1SCCCS1,-2.397148193,2.2025,134.263
,C7352,KXWARPSMGAVRQE-UHFFFAOYSA-N,COc1nccnc1NS(=O)(=O)c1ccc(cc1)N,-1.842428929,2.6032,280.303
,C424,KXWBJMRKTBNVNY-UHFFFAOYSA-N,CC(Cc1ccccc1)C,-4.1199999,2.8851,134.218
,C3573,KXWLQZFZKDEOFK-WLHGVMLRSA-N,COc1ccc2c(c1)CCCC(=O)N2CCN(C(C)C)C(C)C,-4.465629757,3.5483,318.454
,C6018,KXZSVYHFYHTNBI-UHFFFAOYSA-N,ONC(=O)Cc1ccc(cc1)CC(C)C,-2.703758856,2.3239,207.269
,C3464,KYBOCQHDFLVQIB-UHFFFAOYSA-N,CN(CC1COC2(O1)c1ccccc1OCc1c2cccc1)C.OC(=O)/C=C/C(=O)O,-4.570190529,2.4689,427.447
,C5867,KYBVWWVRKOYDNI-UHFFFAOYSA-N,S=c1ccc2c([nH]1)cccc2,-2.799184339,2.8974,161.224
,C8759,KYCBWEZLKCTALM-UHFFFAOYSA-N,Cc1c(CC(=O)O)sc(=S)[nH]1,-0.570311198,1.7412,189.255
,C6951,KYGOFVXOIQYJSF-UHFFFAOYSA-N,OCC(COc1ccc(cc1)C)(CO)CO,-2.121634705,0.3371,226.269
,C8493,KYGZCKSPAKDVKC-UHFFFAOYSA-N,NC(=O)CN1Cc2ccccc2OC1=O,-0.903007854,1.1245,206.198
,C3346,KYHQZNGJUGFTGR-UHFFFAOYSA-N,CCC1OC(c2c1cccc2)(CCCN(C)C)c1ccccc1.Cl,-4.684658344,5.5553,345.906
,C3162,KYITYFHKDODNCQ-UHFFFAOYSA-M,CCn1cc(C(=O)O)c(=O)c2c1cc1OCOc1c2,-4.91187806,1.4483,261.23
,C9662,KYJJTIBGMAGFPS-UHFFFAOYSA-N,CC(Cn1cnc2c1c(=O)n(C)c(=O)n2C)O,0.622972578,-1.1855,238.243
,C8505,KYLIZBIRMBGUOP-UHFFFAOYSA-N,CC(=O)CC(c1c(=O)oc2c(c1[O-])cccc2)c1ccccc1.[Na+],-0.892587929,4.0478,330.31
,C5967,KYRVNWMVYQXFEU-UHFFFAOYSA-N,CCCCNc1c(C)n(C)c(=O)n(c1=O)c1ccccc1,-2.73926537,2.1296,287.357
,C3845,KYSHMUXEDIVXGE-UHFFFAOYSA-N,COc1ccc(cc1)c1ssc(=S)c1,-4.216199331,4.2147,240.365
,C4782,KYWCWBXGRWWINE-UHFFFAOYSA-N,COC(=O)Nc1nc2c([nH]1)cc(cc2)C(=O)c1cccs1,-3.555783955,3.1067,301.32
,C7104,KYWJZCSJMOILIZ-ZETCQYMHSA-N,CNC(=O)N1CC=Cc2c1cccc2,-2.034139594,2.3151,188.226
,C7642,KYWKJKVQLGANBH-UHFFFAOYSA-N,COc1ccc(cc1C(=O)NCc1cccnc1)C(=O)NCc1cccnc1,-1.629854937,3.127,376.408
,C1373,KYWMWUUMCDZISK-UHFFFAOYSA-N,CCC[C@](CC)(O)C,-1,1.9475,116.201
,C7254,KYXSVGVQGFPNRQ-UHFFFAOYSA-N,CCCCn1c(=O)n(C)c(=O)c2c1nc[nH]2,-1.923591988,0.2234,222.244
,C3367,KZAUOCCYDRDERY-UITAMQMPSA-N,NC1=NC(NC1(C(F)(F)F)C(F)(F)F)(C(F)(F)F)C(F)(F)F,-4.664614005,3.0958,357.1
,C8451,KZCSDJKWEYGAIX-UHFFFAOYSA-N,CN1CCc2c(C1)cccc2,-0.940083029,1.6124,147.217
,C1574,KZDCLQBOHGBWOI-UHFFFAOYSA-N,CNC(=O)O/N=C(/C(=O)N(C)C)\SC,0.11,0.498,219.261
,C7395,KZFFWZXBTUJVSG-UHFFFAOYSA-N,OC(=O)c1ccc(c(c1O)C)O,-1.822571159,1.1044,168.147
,C5551,KZKHRXIMQFERJC-UHFFFAOYSA-N,OC(=O)COc1c(Cl)cc(cc1Cl)Cl,-3.013247123,3.1102,255.482
,C3037,KZLNXGBVFTWMPS-UHFFFAOYSA-N,Clc1ccc2c(c1)Nc1ccccc1[NH+](C2)CCC[NH+](C)C.[Cl-].[Cl-],-5.064637872,-2.6366,388.762
,C4694,KZNICNPSHKQLFF-UHFFFAOYSA-N,Clc1ccc(nc1)SCCCCCN1CSCC1.Cl.Cl,-3.611163182,5.5456,375.808
,C4338,KZOLMYACEQVWMI-UHFFFAOYSA-N,CCN(C(=O)C1CN2CCc3c(C2CC1OC(=O)C)cc(c(c3)OC)OC)CC.Cl,-3.85131252,3.1629,440.961
,C1585,KZOWNALBTMILAP-HCVDSKSXSA-N,O=C1CCC(=O)N1,0.30000001,-0.2482,99.088
,C5998,KZPRCESDIPAEAE-OUKQBFOZSA-N,O=C(Nc1ccc(cc1)Br)NC=CP(=O)(N1CC1)N1CC1,-2.717098712,3.2058,371.17
,C8571,KZVRXPPUJQRGFN-UHFFFAOYSA-N,OC[C@H]1O[C@@H]2[C@H]([C@@H]1O)Oc1n2ccc(=N)n1.Cl,-0.822244418,-0.7241,261.662
,C5776,LAAFGFCPKSXKEM-UHFFFAOYSA-N,CC(=O)C(C(=O)C)/N=N/c1ccccc1,-2.866072615,2.3169,204.225
,C8749,LACNYROKODNCOD-UHFFFAOYSA-N,NC(=O)NCC(=O)O,-0.580858784,-0.1695,118.091
,C5720,LACXVZHAJMVESG-UHFFFAOYSA-N,CCCCCS(=O)CCCCC,-2.901143572,3.9812,190.346
,C6513,LAHWLEDBADHJGA-UHFFFAOYSA-N,CCn1c(=O)n(c2ccccc2)c(c(c1=O)N(C)C)C,-2.399270337,1.3935,273.33
,C52,LAIUFBWHERIJIH-MRVPVSSYSA-N,Clc1ccc(c(c1)Cl)c1ccc(c(c1Cl)Cl)Cl,-7.8000002,6.6206,326.433
,C46,LAKYIYSREICHNF-UHFFFAOYSA-M,Clc1ccc(c(c1)c1cc(Cl)c(cc1Cl)Cl)Cl,-7.8899999,6.6206,326.433
,C223,LALCYSXRFOWHLO-UHFFFAOYSA-N,CCCC[C@@H](CC)C,-5.1599998,3.2227,114.229
,C8093,LALJFUOONHRLRK-YEUQMBKVSA-N,Nc1ccc(cc1)S(=O)(=O)Nc1sc(c(n1)C(=O)[O-])C(=O)O.[Na+],-1.279360332,1.3228,365.317
,C1902,LANDSJLNLKENGO-UHFFFAOYSA-N,FC(c1ccccc1CNCC1CCC(CC1)CNCc1ccccc1C(F)(F)F)(F)F.Cl.Cl,-7.868095608,8.7958,531.405
,C3469,LANUMOOLGLLMHD-UHFFFAOYSA-N,COc1cc(/C=C/C(=O)CCN2CCN(CC2)c2ccccc2Cl)cc(c1OC)OC.Cl.O,-4.56493484,4.901,499.427
,C3039,LAOOXBLMIJHMFO-UHFFFAOYSA-N,CN(CCC(c1ccc2c(c1)cccc2)(C(=O)N)CC=C(C)C)C,-5.064013827,4.5712,324.46
,C3907,LAOZSCRCYVBSJA-UHFFFAOYSA-N,Cc1ccc(cc1)N1CN(C(=O)CN2CCCCC2)c2c(C1=O)cccc2.Cl,-4.172219769,4.3017,399.914
,C2230,LAPDMBHXOTURJK-UHFFFAOYSA-N,CCN(CCNc1ccc(c2c1c(=O)c1c(s2)cccc1)C)CC.Cl,-6.401925074,5.3518,376.943
,C1159,LAQPNDIUHRHNCV-UHFFFAOYSA-N,O=C1NC(=O)NC(=O)C1(C)C,-1.74,0.0362,156.139
,C7815,LAVQJQXAUQINRC-UHFFFAOYSA-N,CCCC([NH2+]C)(CC)C.[Cl-],-1.518631896,-1.8476,165.704
,C8310,LAWFYCBSBZSZRC-UHFFFAOYSA-L,N#Cc1cccc(c1)C#N,-1.084823773,1.42996,128.131
,C2068,LAWLMXPSCYHMNV-UHFFFAOYSA-N,CCCCc1c(=O)n(n(c1OC(=O)c1cc(OC)c(c(c1)OC)OC)c1ccccc1)c1ccccc1,-6.928139266,5.2158,502.558
,C9283,LAXBNTIAOJWAOP-UHFFFAOYSA-N,O(CC[N+]12CCC(CC1)CC2)CC[N+]12CCC(CC1)CC2.[I-].[I-],0.260988099,-3.8104,548.284
,C7951,LAYLQVBQIBQVLL-UHFFFAOYSA-N,CN(CCC(c1ccccn1)c1ccccc1)C.Cl,-1.416872788,3.9672,276.804
,C327,LAYVFLWAVIGDLK-UHFFFAOYSA-N,Clc1ccccc1c1ccccc1,-4.54,4.007,188.653
,C1852,LAZPBGZRMVRFKY-HNCPQSOCSA-N,CCOC(=O)CCCCCCCCC(c1ccc(cc1)I)C,-8.376413208,6.0786,416.337
,C3017,LBAPNIABYOOWDN-UHFFFAOYSA-N,COc1ccc2c(c1)C(O)(CCCN(C)C)c1c(S2)cccc1,-5.09128881,3.7375,329.456
,C6623,LBFGUYIPERWUIL-UHFFFAOYSA-N,C1CN2C(=N[C@H](C2)c2ccccc2)S1.Cl,-2.332346451,2.3216,240.752
,C7492,LBGVKIMCKGXEEF-UHFFFAOYSA-N,OS(=O)(=O)SCCNCCCCc1ccccc1,-1.74217923,3.6066,289.414
,C2357,LBIXEEKFDDQZKB-UHFFFAOYSA-N,O=C(C1c2ccccc2c2c1cccc2)OC1CC(C)[NH+](C(C1)C)C.[Cl-],-6.100610001,1.3694,371.9
,C4836,LBKFGYZQBSGRHY-UHFFFAOYSA-N,CCOP(=O)(Oc1ccc(cc1)Cl)OCC,-3.515247409,3.8999,264.643
,C6576,LBKPGNUOUPTQKA-UHFFFAOYSA-N,CN(C(=O)c1cc(Cl)nc(c1)Cl)N,-2.358900987,2.0344,220.056
,C7878,LBNGBAZFYRPPDY-MVFUPKDGSA-N,COc1ccc(cc1O)C(=O)O,-1.469055572,1.099,168.147
,C6675,LBOKTHVXIPFAJO-UHFFFAOYSA-N,CCOC(=O)Nc1ccccc1,-2.291132302,2.328,165.189
,C4957,LBOPECYONBDFEM-VUAFVNRWSA-N,C[NH2+]C1CC[C@@](c2c1cccc2)(C#N)c1ccccc1.[Cl-],-3.414703101,-0.47162,298.81
,C5764,LBRMMZKQEMFFPV-UHFFFAOYSA-N,OC(=O)CCCCCCC1=CCCC1=O,-2.872534382,2.7009,210.27
,C9511,LBSFSRMTJJPTCW-DSXUQNDKSA-N,O[C@H]([C@H](C(=O)O)O)C(=O)O.CC(NC[C@H](c1ccc(c(c1)O)O)O)C,0.430634527,-0.6025,361.344
,C7401,LBSKEFWQPNVWTP-UHFFFAOYSA-N,CCOc1ccccc1COCC(CO)O,-1.818072373,0.9551,226.269
,C8521,LBVWPKTYUAVUEG-UHFFFAOYSA-N,C=C[C@H]1CN2CC[C@H]1C[C@H]2[C@@H](c1ccnc2c1cc(OC)cc2)O.Cl,-0.879758256,3.9131,360.878
,C9305,LBZUJSQLLVDWDQ-UHFFFAOYSA-N,CCC(C#C)O,0.277599399,0.3905,84.1164
,C2334,LCAWNFIFMLXZPQ-UHFFFAOYSA-N,OS(=O)(=O)SCCNc1c2ccccc2nc2c1cccc2,-6.136886819,4.4897,334.413
,C7779,LCCNCVORNKJIRZ-UHFFFAOYSA-N,CN(CCNC(=O)c1ccccc1)C,-1.543057226,1.3689,192.258
,C6118,LCCVYZLUEHOBDC-UHFFFAOYSA-N,Oc1ccc(cc1)c1cc(=O)c2c(o1)cc(cc2)O,-2.650897252,2.8712,254.238
,C294,LCDSUTOOQPRVAF-UHFFFAOYSA-L,CCOP(=S)(Oc1ccc(cc1)[N+](=O)[O-])OCC,-4.6599998,4.4449,291.261
,C2506,LCGFVWKNXLRFIF-UHFFFAOYSA-N,COC(=O)c1ccccc1Nc1cccc(c1C)C,-5.823880959,3.9066,255.312
,C9343,LCIGZLBQNNATGD-UHFFFAOYSA-N,CCCC[N+](CCOCC[N+](C)(C)C)(CC)C.[I-].[I-],0.300814648,-4.0162,500.241
,C8339,LCIYPQCPCSHMJD-UHFFFAOYSA-N,NC1CCc2c(C1)cccc2,-1.044118093,2.2029,147.217
,C3614,LCLCVVVHIPPHCG-UHFFFAOYSA-N,O=C(C(=C)c1ccc(cc1)Br)OC1CC2CCC(C1)[NH+]2C.[Cl-],-4.423037028,0.7868,386.711
,C2148,LCMPIWIWBGHBOY-UHFFFAOYSA-N,CCCCC1=CC(N(C(C1)(C)C)C(=O)CN1CCCCCC1)(C)C,-6.662327059,4.6443,334.539
,C1188,LCNBIHVSOPXFMR-UHFFFAOYSA-N,CC(=O)CC(=O)C(C)(C)C,-1.63,1.5807,142.196
,C8920,LCPDWSOZIOUXRV-UHFFFAOYSA-N,CC(=O)OCC(=O)CCl,-0.350981317,0.3574,150.56
,C9621,LCRXWIKBUJLRRR-UHFFFAOYSA-N,NCCCNCCCCN.Cl.Cl.Cl,0.594100681,3.8612,254.629
,C1354,LCUQUQYVCIRRJK-UHFFFAOYSA-N,OC(=O)COc1ccccc1,-1.1,1.15,152.147
,C2232,LCWKIAHCEIHHJE-UHFFFAOYSA-N,COc1cc2c(cc1OC)CCN(C2CCc1cc(Cl)cc(c1OC)Cl)C,-6.398294704,5.1189,410.334
,C2333,LCWQBSJESOQELG-UHFFFAOYSA-N,CCCCC1=CC(N(C(C1)(C)C)C(=O)CN1CCCCC1)(C)C,-6.140368504,4.2542,320.513
,C8456,LCXDJHNQFGKTOE-UHFFFAOYSA-N,CN(Cc1cc(C)c(c(c1)C)O)C,-0.937520315,2.0706,179.259
,C5992,LCXMEXLGMKFLQO-UHFFFAOYSA-N,CCCCN1CCC(CC1)(C)OC(=O)CC.Cl,-2.720580952,3.3341,263.804
,C6376,LDBTVAXGKYIFHO-UHFFFAOYSA-N,CCCC(COC(=O)NNC(C)C)(CO)C,-2.493937822,2.2061,232.32
,C49,LDCQHCJYFHPEJN-UHFFFAOYSA-N,Clc1ccc(cc1Cl)c1cc(Cl)c(c(c1Cl)Cl)Cl,-7.8200002,7.274,360.878
,C7243,LDCVQEHNEIJAPV-UHFFFAOYSA-N,COc1cc(ccc1OC)Cc1cnc(nc1N)N,-1.927341667,2.4114,260.292
,C3159,LDCYZAJDBXYCGN-VIFPVBQESA-N,COc1cc2c(cc1OC)CC[NH+](C2CCc1cccc(c1)Cl)C.[Cl-],-4.912186855,1.6751,382.324
,C7156,LDHFPUHSSYUQAA-MDZDMXLPSA-N,CCCOc1ccc(cc1)CC(=O)NO,-1.994319228,1.9142,209.242
,C8553,LDHRPGPXSCBURF-UHFFFAOYSA-N,OC(=O)[C@H](Cc1c[nH]c2c1cc(O)cc2)N,-0.844561981,1.5282,220.225
,C5229,LDHXSKPYAZKHNX-UHFFFAOYSA-N,OC(/C=C/c1ccccc1)CCN1CCN(CC1)c1ccccn1,-3.221991998,2.6709,323.432
,C2984,LDJNSLOKTFFLSL-UHFFFAOYSA-M,CC(COc1ccc(cc1)C(=O)OCCCN1CCCCC1C)C,-5.128607667,4.0806,333.465
,C3818,LDLJGAYVPOULLZ-UHFFFAOYSA-N,SCCNCCCCCOc1ccc(cn1)I.Cl,-4.235786252,3.9476,402.722
,C9327,LDMNWDMAZKMCSI-UHFFFAOYSA-N,[O-]C(=O)c1ccccc1.[Li+],0.290543502,0.0501,128.054
,C804,LDMOQBBDWPPTNL-UHFFFAOYSA-N,Sc1cnc2c(n1)cncn2,-2.71,0.7085,164.188
,C4698,LDMWSLGGVTVJPG-UHFFFAOYSA-N,CCCCOc1ccc(cc1CC)CC(=O)NO,-3.60784573,2.8667,251.321
,C6367,LDOCMFAHAVONEI-UHFFFAOYSA-N,OCC(COc1ccccc1Br)O,-2.496876922,1.1811,247.086
,C6980,LDPFAJVAGABIAZ-MKNSLJMYSA-N,Cc1cc(nnc1NCCN1CCOCC1)c1ccccc1,-2.101872276,2.207,298.383
,C4905,LDPUUCGOLVUXRV-UHFFFAOYSA-N,Fc1ccc(cc1)S(=O)(=O)Nc1ccccc1,-3.452225645,3.7803,251.277
,C2110,LDQABYIPLUEXCO-UHFFFAOYSA-N,O[C@H]([C@H](C(=O)O)O)C(=O)O.CCC(CCN1CC[C@@]23[C@H]([C@H]1Cc1c3cc(cc1)OC)CCCC2)CC,-6.779572452,3.3952,505.644
,C3589,LDRPIKATXVJPJE-UHFFFAOYSA-N,ClCCN(CCOc1ccc(cc1)OCCN(CCCl)CC)CC.Cl.Cl,-4.454812058,5.1696,450.271
,C5670,LDSBLKAMJYFFIF-UHFFFAOYSA-N,NCC(c1ccc2c(c1)ccc1c2cccc1)O.Cl,-2.933579325,4.4874,273.757
,C3104,LDYJXVUOVPVZKA-UHFFFAOYSA-N,OC(=O)C(=O)[O-].C[NH+](CCn1c2ccc(cc2c2c1cccc2)Cl)C,-4.985647981,0.4133,362.807
,C6035,LDZSKXHAIBCHCF-UHFFFAOYSA-N,O=C(Nc1ccccc1)NC=CP(=O)(N1CC1)N1CC1,-2.692742905,2.4433,292.273
,C6730,LDZYRENCLPUXAX-UHFFFAOYSA-N,CN(CCN(c1ccccc1)Cc1cccs1)C,-2.258484856,3.3163,260.398
,C4123,LEBVLXFERQHONN-INIZCTEOSA-N,CCNCCCC12CC3CC(C2)CC(C1)C3.Cl,-4.023970589,4.7854,257.843
,C1084,LEBVLXFERQHONN-MRXNPFEDSA-N,Cc1nc2c([nH]1)cccc2,-1.96,1.8713,132.163
,C3842,LEHGCEPMNDWJMX-QXMHVHEDSA-N,CCCCN1CCCC[C@H]1C(=O)Nc1c(C)cccc1C,-4.21700991,3.9074,288.428
,C3841,LEHGCEPMNDWJMX-VAWYXSNFSA-N,CCCCN1CCCC[C@@H]1C(=O)Nc1c(C)cccc1C,-4.21700991,3.9074,288.428
,C5610,LEHOTFFKMJEONL-UHFFFAOYSA-N,C#CCNC(=O)/C(=C(\c1ccccc1)/C)/C,-2.971015285,2.6203,213.275
,C5609,LENKRHVWHTZTKI-UHFFFAOYSA-N,C#CCNC(=O)/C(=C(/c1ccccc1)\C)/C,-2.971015285,2.6203,213.275
,C469,LENZDBCJOHFCAS-UHFFFAOYSA-N,O=c1[nH]c2c([nH]1)[nH]c(=O)[nH]c2=O,-3.9300001,-1.7672,168.11
,C7005,LEQAKWQJCITZNK-AXHKHJLKSA-N,CCCC(C([NH3+])C)CCC.[Cl-],-2.084363667,-1.1628,179.731
,C9700,LEQYZWFWTZQBAZ-UHFFFAOYSA-N,OCC(CO)(CO)N,0.657089461,-1.6389,121.135
,C4664,LEROTMJVBFSIMP-UHFFFAOYSA-N,OC[C@H]1O[C@@H](Oc2cc3CC[C@@H](c4c(c3c(c2OC)OC)ccc(c(=O)c4)SC)NC(=O)C)[C@@H]([C@H]([C@@H]1O)O)O,-3.630410908,1.1459,563.617
,C1829,LESVOLZBIFDZGS-SSDOTTSWSA-N,Cc1cc(C)cc(c1CNCC1CCC(CC1)CNCc1c(C)cc(cc1C)C)C.Cl.Cl,-8.65966634,8.6086,479.568
,C6562,LETUJYJJIASUKQ-UHFFFAOYSA-N,CCC(C(COC(=O)N)(COC(=O)N)C)C,-2.366011817,2.63,232.277
,C1662,LEVWYRKDKASIDU-IMJSIDKUSA-N,CNC(=O)[C@H](SCCSP(=O)(OC)OC)C,1.14,2.3791,287.337
,C3730,LFAXYIHYMGEIHW-UHFFFAOYSA-N,C(CCN1CSCC1)CCSc1ccc2c(n1)cccc2.Cl.Cl,-4.313881634,6.0454,391.422
,C5399,LFDHHWHDYXAPIG-OSPZJNBRSA-N,N[C@H](C(=O)O)CSSC[C@@H](C(=O)O)N,-3.101985729,0.5922,240.3
,C3664,LFDRIERUIQJBLI-UHFFFAOYSA-L,Nc1ccc(cc1)S(=O)(=O)NC(=O)c1ccc(c(c1)C)C,-4.37449017,4.0572,304.364
,C4526,LFHISGNCFUNFFM-UHFFFAOYSA-N,OC[C@H]([C@H]([C@@H]([C@H](C(=O)O)O)O)O)O.CC[C@H]1CN2CC[C@H]1CC2[C@H](c1ccnc2c1cc(OC)cc2)O,-3.705328001,-0.158,522.588
,C9439,LFKDJXLFVYVEFG-UHFFFAOYSA-N,C[N+](CCC[n+]1ccc(cc1)Cc1ccccc1)(C)C.[Br-].[Br-],0.366301328,-3.3308,430.22
,C1068,LFQSCWFLJHTTHZ-UHFFFAOYSA-N,ClC([N+](=O)[O-])(Cl)Cl,-2,2.114,164.375
,C1572,LFSAPCRASZRSKS-ZCFIWIBFSA-N,NC(=O)OC(C)(C)C,0.1,1.5805,117.146
,C1657,LFTDPULWBZMYIZ-UHFFFAOYSA-N,CCO,1.1,-0.0014,46.0684
,C1387,LFULEKSKNZEWOE-UHFFFAOYSA-N,C[C@@H]1CCCCC1=O,-0.94,1.7656,112.17
,C2107,LFVLUOAHQIVABZ-UHFFFAOYSA-N,O=C(Nc1cc(Cl)ccc1Sc1ccc(cc1)Cl)CCN1CCCCC1,-6.784745668,5.97,409.372
,C723,LFVZHCDOKIVWBQ-RRAJOLSVSA-N,CCC(=O)Nc1ccc(c(c1)Cl)Cl,-3,3.4149,218.08
,C102,LFWCBZHUGLQWRZ-UHFFFAOYSA-N,COP(=S)(Oc1cc(Cl)c(cc1Cl)I)OC,-6.6199999,5.1447,412.997
,C6876,LFYKIVVWZIBLAT-UHFFFAOYSA-L,CC[NH+](CC(=O)N/N=C/c1ccc(o1)[N+](=O)[O-])CC.[Cl-],-2.163770336,-2.5193,304.73
,C5276,LGCMKPRGGJRYGM-UHFFFAOYSA-N,NC(=O)C(c1ccccc1)(CCN1CCOCC1)CCN1CCOCC1,-3.177880228,1.4304,361.478
,C2150,LGDFHDKSYGVKDC-UHFFFAOYSA-N,C[N+]1(CCCCCCCCCCCC[N+]2(C)CCOCC2)CCOCC1.[I-].[I-],-6.652469676,-2.2334,624.422
,C5802,LGEXGKUJMFHVSY-UHFFFAOYSA-N,Oc1ccc(cc1)NC(=O)c1ccccc1O,-2.849467917,2.4231,229.231
,C8915,LGEYZYKILBJRED-UHFFFAOYSA-N,Oc1ccc(c2c1nccc2)S(=O)(=O)O,-0.354430976,2.2679,225.221
,C7835,LGGDXXJAGWBUSL-BKRJIHRRSA-N,CNc1nc(NC)nc(n1)NC,-1.504850549,0.2157,168.2
,C8725,LGHXOLFTXCZWDE-UHFFFAOYSA-N,N/C(=N\C1CC1)/CSS(=O)(=O)O,-0.616905361,1.8231,210.274
,C5831,LGLLXTFYYXSARU-GFOWMXPYSA-N,COc1ccc2c3c1O[C@@H]1[C@@]43CCN([C@H](C2)[C@@H]4CC[C@@H]1OC(=O)C)C,-2.828259202,2.2338,343.417
,C5677,LGLQBSMADBVAHQ-UHFFFAOYSA-N,CC(NC12CC3CC(C2)CC(C1)C3)C.Cl,-2.92676602,4.1461,229.789
,C2490,LGNFRLBPCVLGOB-UHFFFAOYSA-N,ClCCN(c1ccc(cc1)CC(C(=O)N[C@@H](C(=O)OCC)C(C)C)NC(=O)C)CCCl,-5.846861963,3.5035,474.421
,C4291,LGRFSURHDFAFJT-UHFFFAOYSA-N,CCN(c1nc(nc(n1)N(C)C)N(C)C)CC,-3.885413337,0.8498,238.333
,C4499,LGUQLTCUYSWFIN-UHFFFAOYSA-N,Fc1ccc(cc1)C(=O)CCCN1CCc2c(C1)c1cc(F)ccc1[nH]2.Cl,-3.728102751,5.2072,390.854
,C1275,LGXVIGDEPROXKC-UHFFFAOYSA-N,O=C1OC(=O)c2c1cccc2,-1.39,0.9972,148.116
,C4365,LGYNIFWIKSEESD-MRVPVSSYSA-N,CCOC(=O)c1c(C)ccc(c1OCCN(C)C)C(C)C,-3.83400203,3.2355,293.401
,C1183,LGYTZKPVOAIUKX-UHFFFAOYSA-N,ClC(=C)Cl,-1.64,1.9352,96.9433
,C1026,LHCPRYRLDOSKHK-UHFFFAOYSA-N,CCCC[C@H](C=O)CC,-2.1300001,2.4017,128.212
,C639,LHDOMIDCONKWJG-UHFFFAOYSA-M,CC(=O)CCC1C(=O)N(N(C1=O)c1ccccc1)c1ccccc1,-3.27,3.0968,322.358
,C8523,LHERLWVEBQULCM-UHFFFAOYSA-N,Nc1ncnc2c1cn[nH]2,-0.877898746,0.5163,135.127
,C4478,LHFKRBYXOIOTIX-UHFFFAOYSA-M,CCC1CC(C(C21C(=O)[N-]C(=S)NC2=O)C)C.[Na+],-3.744198679,1.6492,276.33
,C4073,LHGMHYDJNXEEFG-UHFFFAOYSA-N,COC(=O)c1ccc2c(c1)c(N)c1c(n2)cccc1,-4.06142664,3.338,252.268
,C4402,LHGVFZTZFXWLCP-UHFFFAOYSA-N,CCCCCCCC[N+](CCOC(=O)C(c1ccccc1)(c1ccccc1)O)(C)C.[Cl-],-3.803748016,1.9066,448.038
,C6224,LHHGDZSESBACKH-RCJZDJILSA-N,CN(c1ccc(cc1)/N=C/1\C=CC(=O)C=C1)C,-2.57649302,2.5202,226.274
,C1087,LHIALLMPKJMSIQ-NSCUHMNNSA-N,COc1ccccc1O,-1.96,1.4008,124.137
,C204,LHJGJYXLEPZJPM-UHFFFAOYSA-N,O=C1[C@]2(Cl)[C@@]3([C@@]4([C@@]1(Cl)[C@@]1([C@]2([C@@]3(Cl)C([C@]41Cl)(Cl)Cl)Cl)Cl)Cl)Cl,-5.2600002,4.6182,490.636
,C6963,LHLMOSXCXGLMMN-CLTUNHJMSA-M,Nc1nccc(n1)/C=C/c1ncc(n1C)[N+](=O)[O-],-2.112358848,1.9753,246.225
,C1001,LHNXUEAGNLUMMI-BHLCTJEESA-N,Clc1cc(Cl)c(cc1O)Cl,-2.21,3.3524,197.446
,C7397,LHNXUEAGNLUMMI-JVFQMWRPSA-N,OCC(c1ccccc1)C(=O)OC1C[C@@H]2CC[C@H](C1)[N+]2(C)C(C)C.[Br-],-1.821494582,-0.1831,412.361
,C3678,LHRCREOYAASXPZ-UHFFFAOYSA-N,Oc1ccc2c(c1)[C@@]13CCCC[C@@H]3[C@H](C2)N(CC1)CCc1ccco1.Cl,-4.365953969,5.0262,373.916
,C3677,LHRIUKSRPHFASO-UHFFFAOYSA-N,Oc1ccc2c(c1)[C@]13CCCC[C@H]3[C@@H](C2)N(CC1)CCc1ccco1.Cl,-4.365953969,5.0262,373.916
,C12,LHXDLQBQYFFVNW-XCBNKYQSSA-N,c1ccc2c(c1)c1cc3ccc4c(c3cc1cc2)cccc4,-8.6599998,6.2994,278.347
,C8710,LHYPLJGBYPAQAK-UHFFFAOYSA-M,O=c1nc[nH]c(c1)C,-0.652684343,0.0783,110.114