Name,Compound ID,InChIKey,SMILES,logS,logP,MW
,C9324,NUYADIDKTLPDGG-UHFFFAOYSA-N,CC[N+](CCOCC[N+]1(C)CCOCC1)(CC)C.[I-].[I-],0.288841729,-5.067,514.225
,C6388,NVANJYCBQSEUNE-GDNBJRDFSA-N,CCCC(COC(=O)N)(COC(=O)NCC#C)C,-2.486545718,2.3387,256.298
,C7179,NVGOPFQZYCNLDU-UHFFFAOYSA-N,CCC(C#CC(CC)(O)C)(O)C,-1.973413648,1.3118,170.249
,C5913,NVHNGVXBCWYLFA-UHFFFAOYSA-N,OC(=O)Cc1ccc2c(c1)[nH]/c(=C/1\C=CC=CC1=O)/s2,-2.772280595,1.9834,285.318
,C444,NVINOPOHEGEHMH-UHFFFAOYSA-N,CNc1cnn(c(=O)c1Cl)c1cccc(c1)C(F)(F)F,-4.04,3.0194,303.668
,C9260,NVIPBLQAFKRFSZ-UHFFFAOYSA-N,S=C1NCCCN1,0.228886246,0.5118,116.185
,C5977,NVJUHMXYKCUMQA-UHFFFAOYSA-N,COc1cc(Cc2cnc(nc2N)N)cc(c1C#N)OC,-2.733089978,2.28308,285.301
,C3480,NVKAWKQGWWIWPM-ABEVXSGRSA-N,COc1cc2CCN(C(c2cc1O)CCc1ccc(cc1)Cl)C.Cl,-4.553362136,4.9559,368.297
,C1460,NVKGVBZZSJFQLM-UHFFFAOYSA-N,CCOCCC,-0.66000003,1.4329,88.1482
,C281,NVTHWSJNXVDIKR-UHFFFAOYSA-N,O=C1CC[C@]2([C@H](C1)CC[C@@H]1[C@@H]2CC[C@]2([C@H]1CC[C@@H]2O)C)C,-4.7399998,3.9591,290.44
,C8598,NVUGKLNAYJKCMZ-UHFFFAOYSA-N,ClCCN(C(=O)N)N=O,-0.794056975,0.9876,151.552
,C6968,NVYCAPIKGLKFOG-UHFFFAOYSA-M,COc1cc(OC)cc(c1)C#N,-2.108852535,1.57548,163.173
,C9774,NVYNAVAAFURMOU-UHFFFAOYSA-N,NC(=S)Cc1ccccn1.Cl,0.724290245,2.4125,188.678
,C6788,NVZBUOLUIIYTHZ-UHFFFAOYSA-N,C[N+]1(CCCN2CC3CCCC(C2)C3)CCCC1.[I-],-2.223776128,-0.3604,378.335
,C3025,NWEHHHQVDLTXFI-UHFFFAOYSA-N,Cc1ccc(cc1)S(=O)(=O)N1CC=Cc2c1cccc2,-5.071579237,4.3629,285.361
,C7473,NWEOHFSKEFZFOY-UHFFFAOYSA-N,FC(C1(NCCS1)C(F)(F)F)(F)F.O,-1.754460886,2.4082,243.171
,C8633,NWGAPDBVDUWGOC-UHFFFAOYSA-N,NC(=S)C(c1ccccn1)c1ccccc1.Cl,-0.762004938,4.0019,264.774
,C3152,NWGINJFMAHGUNS-UHFFFAOYSA-N,CNCCC12CC3CC(C2c2ccccc2)CC(C1)C3.Cl,-4.918538928,5.3989,305.885
,C7705,NWHUWTFLOIGXEA-UHFFFAOYSA-N,CCC(C(=O)N)(SC)CC,-1.596874572,2.0938,161.265
,C9718,NWIBSHFKIJFRCO-WUDYKRTCSA-N,OCC(CCN1C(=O)OC(C1=O)(C)C)O,0.663098211,-0.575,217.219
,C6710,NWINIEGDLHHNLH-UHFFFAOYSA-N,COC(=O)c1cnc2n(c1=O)C(C)CCC2,-2.268735895,0.9272,222.24
,C7700,NWIUTZDMDHAVTP-UHFFFAOYSA-N,CO[C@@]12[C@H]3N[C@H]3CN2C2=C([C@H]1COC(=O)N)C(=O)C(=C(C2=O)C)N,-1.598350372,0.0161,334.327
,C1331,NWJIWGNFMQWTDD-UHFFFAOYSA-N,Cc1cc(O)c2c(n1)cccc2,-1.2,2.2488,159.185
,C5825,NWPRCRWQMGIBOT-UHFFFAOYSA-N,OC(COc1ccc(cc1)CCOCC1CC1)CNC(C)C,-2.833864323,2.7843,307.428
,C8538,NWQYKVCNCNTXCO-UHFFFAOYSA-N,CNC(=S)NCCCN.Br.Br,-0.862682564,2.8274,309.066
,C8843,NWSILLQQTSAKHH-UHFFFAOYSA-N,OCCn1cnc2c1c(=O)n(C)c(=O)n2C,-0.450034164,-1.574,224.217
,C6225,NWTFHWBGRKKUPK-UHFFFAOYSA-N,CCNCC(CCC)CCC.Cl,-2.576298765,4.0052,193.757
,C5160,NWULWVPYPIRXAU-UHFFFAOYSA-N,OC(COc1ccc2c(c1)CCCC2)COC(=O)N,-3.271463622,2.1007,265.305
,C7394,NWVNXDKZIQLBNM-UHFFFAOYSA-N,CC1CCC([NH2+]1)c1c[nH]c2c1cccc2.[Cl-],-1.822827149,0.5279,236.74
,C7790,NWXMGUDVXFXRIG-PMXORCKASA-N,NC(=O)c1cccc(c1O)C,-1.53501263,1.4998,151.163
,C6535,NWXMGUDVXFXRIG-WESIUVDSSA-N,N1CCN(CC1)C(c1ccccc1)c1ccccc1,-2.384988883,2.9479,252.354
,C7048,NWZBFJYXRGSRGD-UHFFFAOYSA-M,CN([C@H]1C(=O)C(=C([C@@]2([C@H]1C[C@H]1C(=C(O)c3c([C@@]1(C)O)cccc3O)C2=O)O)O)C(=O)N)C,-2.058981413,0.3293,444.435
,C5140,NWZWOTBTQLQCFE-UHFFFAOYSA-N,CN([C@@H]1C(=O)C(=C([C@@]2([C@H]1C[C@H]1C(=C(O)c3c([C@@]1(C)O)cccc3O)C2=O)O)O)C(=O)N)C,-3.284013193,0.3293,444.435
,C2474,NXFQHRVNIOXGAQ-OQFOIZHKSA-N,CCCCCCCCCCCCCCCCCCOS(=O)(=O)[O-].[Na+],-5.877445973,6.8055,372.539
,C7679,NXFQHRVNIOXGAQ-YCRREMRBSA-N,O=C1C(CCc2c1cccc2)C[NH+]1CCOCC1.[Cl-],-1.610432117,-1.08,281.778
,C1690,NXFQWRWXEYTOTK-UHFFFAOYSA-N,O=C1NC(=O)N(C1)/N=C/c1ccc(o1)[N+](=O)[O-]	,-3.24 ,0.8634,238.157
,C604,NXGAOFONOFYCNG-UHFFFAOYSA-N,O=C1NC(=O)N(C1)/N=C/c1ccc(o1)[N+](=O)[O-],-3.3800001,0.8634,238.157
,C8064,NXJOFTRBTBDSHB-UHFFFAOYSA-N,COc1nc(C)nc(n1)N,-1.302725284,0.352,140.143
,C3638,NXKQVGQLYKHOOE-UHFFFAOYSA-N,O=P(c1ccccc1)(c1ccccc1)Cc1ccccc1,-4.397669682,4.2007,292.311
,C9231,NXLIEUOZIPULBY-UHFFFAOYSA-L,CN1CCCN(CC1)C(=S)SSC(=S)N1CCCN(CC1)C,0.187453533,1.9642,378.643
,C6350,NXMGHXWDIYVXFB-UHFFFAOYSA-L,N=C(CCCCCCCCCCC(=N)[NH3+])[NH3+].[Cl-].[Cl-],-2.504343909,-4.4668,299.284
,C2424,NXNSCUZKMVYAJQ-UHFFFAOYSA-N,C[N+]1(CCCCCCC[N+]2(C)CCCCC2)CCCCC1.[I-].[I-],-5.974971986,-1.8765,550.343
,C9428,NXQDBZGWYSEGFL-UHFFFAOYSA-N,CCCC[N+](CCOCC[N+](CCCC)(C)C)(C)C.[Br-].[Br-],0.362209181,-3.236,434.294
,C2869,NXQMNKUGGYNLBY-UHFFFAOYSA-N,CC(NCCCC1(C(=O)N)c2ccccc2c2c1cccc2)C.Cl,-5.263513938,5.1098,344.878
,C353,NXRFAOYGMMRIRW-UHFFFAOYSA-N,COP(=S)(SCC(=O)N(c1ccc(cc1)Cl)C(C)C)OC,-4.4299998,4.9825,367.852
,C7850,NXVAEVHJWOBXKG-UHFFFAOYSA-N,OC(COc1cccc(c1)C)CNC(C)C,-1.49219093,2.1236,223.311
,C7325,NXWWSYGSSAHNRR-UHFFFAOYSA-N,CC(=O)CCN1CCN2C(C1)CCc1c2cccc1.Cl,-1.868588465,2.9074,294.82
,C7836,NXXYKOUNUYWIHA-UHFFFAOYSA-N,CNC(=O)c1ccccc1OC,-1.503659252,1.4457,165.189
,C2814,NXYZPLILSHUEBR-UHFFFAOYSA-N,O=C(N1CC=Cc2c1cccc2)OCc1ccccc1,-5.333851798,3.9216,265.307
,C1296,NYFGFEHEOLLIMX-UHFFFAOYSA-N,Cc1cccc(c1O)C,-1.3099999,2.009,122.164
,C9206,NYFHVSARWRNBEM-UHFFFAOYSA-N,O=C(NC1C=CC(OC1C(=O)O)n1ccc(nc1=O)N)CC1CCN(C(=N1)N)C,0.148736284,-0.6967,405.408
,C2161,NYGBABLOVPPBIK-UHFFFAOYSA-N,CCCCOc1ccc(cc1)OCC(=O)N(c1cccc(c1)OC)CCN1CCCCC1.Cl,-6.595771238,5.5119,477.036
,C7408,NYGHGTMKALXFIA-UHFFFAOYSA-N,S=C(N1CCOCC1)Cc1ccccc1,-1.8135378,1.8266,221.319
,C8289,NYGZLYXAPMMJTE-ANVLNOONSA-M,CCC[NH2+]C(C(c1ccccc1)O)C.[Cl-],-1.101180351,-1.9141,229.746
,C3336,NYHBQMYGNKIUIF-FTWQFJAYSA-N,C=CCN1Cc2ccccc2c2c(C1)cccc2,-4.691341781,3.7931,235.324
,C5927,NYIZXMGNIUSNKL-UHFFFAOYSA-N,[O-]S(=O)(=O)c1cccc(c1)/N=N/c1ccc(cc1)Nc1ccccc1.[Na+],-2.765380673,5.9035,375.377
,C8428,NYMGNSNKLVNMIA-UHFFFAOYSA-N,OC[C@H]1O[C@H]([C@@H]([C@H]1O)O)n1cnc2c1[nH]c(N)nc2=O,-0.95385015,-2.1055,283.241
,C7620,NYMLZIFRPNYAHS-UHFFFAOYSA-N,CC(=O)Oc1c(cccc1C(=O)O)OC(=O)C,-1.647039255,1.2354,238.194
,C8567,NYOGEUOODGKWFZ-UHFFFAOYSA-N,CC(NNC(=O)c1ccncc1)C,-0.824773094,1.5062,179.219
,C7730,NYOXUFIGYAMVOL-VAWYXSNFSA-N,c1ccc(cc1)c1ncn[nH]1,-1.575950178,1.4717,145.161
,C7750,NYPYHUZRZVSYKL-SSDOTTSWSA-N,OCCN(Cc1ccc2c(n1)cccc2)CCN(CC)CC.Cl.Cl.O,-1.568384384,3.9106,392.364
,C3652,NYQDCVLCJXRDSK-UHFFFAOYSA-N,CCCCCOc1ccc(cc1)/C=C(/C(=O)NO)\C,-4.387088145,3.5552,263.332
,C757,NYUMGRCHKCJLBG-UHFFFAOYSA-N,OC(=O)[C@@H](Cc1cc(I)c(c(c1)I)O)N,-2.8599999,2.2561,432.982
,C136,NYVYQBXTIUYRRP-UHFFFAOYSA-N,COP(=S)(Oc1cc(Cl)c(cc1Cl)Br)OC,-6.0900002,5.3026,365.996
,C2776,NZASCBIBXNPDMH-UHFFFAOYSA-N,CC[NH+](CCN1Cc2ccccc2Nc2c1cccc2)CC.[Cl-],-5.400417619,-0.1181,331.883
,C2130,NZAVDKRFUVOTLS-UHFFFAOYSA-N,N(CC1CC2CC1C=C2)CC1CCC(CC1)CNCC1CC2CC1C=C2.Cl.Cl,-6.726759709,6.7822,427.494
,C7945,NZBGFGGNLREHFL-UHFFFAOYSA-N,CCC1(CC)C(=O)NC=CC1=O,-1.42171612,1.3342,167.205
,C5209,NZBSAAMEZYOGBA-UHFFFAOYSA-N,CCC(=O)N1C2CCC1CN(C2)CC1CCCC1,-3.234257186,2.1376,250.38
,C6528,NZDASSHFKWDBBU-KVMCETHSSA-N,N(Cc1ccccc1)CCNCc1ccccc1.Cl.Cl,-2.392109527,4.9518,313.265
,C2639,NZDMRJGAFPUTMZ-UHFFFAOYSA-N,O=c1c2cccc3c2c(c2n1c1ccccc1n2)ccc3,-5.590472099,3.5919,270.285
,C2922,NZDNCDGEHXHPCO-UHFFFAOYSA-N,O=C(C(C(=O)Oc1ccccc1)c1ccccc1)N[C@@H]1C(=O)N2[C@@H]1SC([C@@H]2C(=O)O)(C)C,-5.193638041,2.3363,454.496
,C9669,NZFNXWQNBYZDAQ-UHFFFAOYSA-N,CCC(C(c1ccc(c(c1)O)O)O)N.Cl,0.631356155,2.3708,233.692
,C8161,NZGGNOPKFAEZDI-UHFFFAOYSA-N,[O-][N+](=O)N(CCO[N+](=O)[O-])CCO[N+](=O)[O-],-1.21907482,0.4663,240.128
,C1951,NZHGWWWHIYHZNX-CSKARUKUSA-N,CSc1ccc2c(c1)N(CCC1CCCCN1C)c1c(S2)cccc1.Cl,-7.489053566,6.6905,407.035
,C6303,NZKIQIJDMKXDFV-UHFFFAOYSA-N,OCC(COc1ccc(c(c1)C)Cl)O,-2.533007018,1.3804,216.661
,C2679,NZLBHDRPUJLHCE-UHFFFAOYSA-N,COc1cc(/C=C/C(=O)Nc2ccccc2C(=O)O)ccc1OC,-5.531502799,3.1269,327.331
,C4501,NZNMSOFKMUBTKW-UHFFFAOYSA-N,OC(CN1CCN(CC1)c1ccc(c(c1)C)C)COc1ccccc1C(=O)C,-3.727116825,3.0708,382.496
,C3332,NZPWAZZKZMQLTL-UHFFFAOYSA-N,CCN(CCCN(C1Cc2c(C1)cccc2)c1ccccc1)CC,-4.694210132,4.3923,322.487
,C1255,NZQFOCIYDGJNSF-UHFFFAOYSA-N,OC(=O)C1CCCCC1,-1.45,1.6513,128.169
,C8117,NZQJDEJTKKTQOI-UHFFFAOYSA-N,C=Cc1cnc(n1C)[N+](=O)[O-],-1.255417189,1.4945,153.139
,C7390,NZRHOWNFGASHMN-UHFFFAOYSA-N,CCc1nc(OC)nc(n1)N,-1.824396343,0.606,154.17
,C6664,NZVQLVGOZRELTG-UHFFFAOYSA-N,CCN(C(C(C)(C)C)(C)C)C.Br,-2.301418497,3.7209,238.208
,C5493,NZXDMTPYTKPXCD-UHFFFAOYSA-N,Nc1nnc(c(n1)c1ccccc1)c1ccccc1,-3.044709461,3.369,248.283
,C4244,NZZFYRREKKOMAT-UHFFFAOYSA-N,COc1c2c(=O)cc(oc2cc2c1cco2)C,-3.93061656,2.8562,230.216
,C5363,NZZWSEZHSXKDLZ-UHFFFAOYSA-N,O=C1CC(CN1c1ccccc1)NCCc1ccccc1,-3.125513796,3.0801,280.364
,C956,OAIXNMHLYQAFPH-UHFFFAOYSA-N,ICI,-2.3399999,1.8139,267.836
,C2468,OAKWIWZBECYOJE-UHFFFAOYSA-N,OC(CN1CCN(CC1)c1ccc(c(c1)C)C)COc1cc(C)ccc1C(C)C.Cl.Cl,-5.886297436,5.904,469.487
,C8207,OALDUTFOEYTFDS-UHFFFAOYSA-N,CN(CCOCCCOC(=O)c1ccc(cc1)N)C,-1.17746476,1.9751,266.336
,C5121,OALHHIHQOFIMEF-UHFFFAOYSA-N,CCCCc1ccc(cc1)OCC(CO)O,-3.29775083,1.7612,224.296
,C7319,OAOBMEMWHJWPNA-UHFFFAOYSA-N,CCn1c(C)c(N(C)C)c(=O)n(c1=O)c1ccccc1,-1.87440397,1.3935,273.33
,C5437,OAPDPORYXWQVJE-UHFFFAOYSA-N,O=C1OC2(c3c1cccc3)c1cc(I)c(c(c1Oc1c2cc(I)c(c1I)O)I)O,-3.077054711,6.0842,835.892
,C9049,OAPVUSSHCBRCOL-KBHRXELFSA-N,Nc1ccc(cc1)P(=O)(O)O,-0.124373786,0.653,173.106
,C6768,OARDBPIZDHVTCK-UHFFFAOYSA-N,CCCc1ccc(cc1)N,-2.237913179,2.8025,135.206
,C8623,OARUOQLHKTZEIM-UHFFFAOYSA-N,CN([C@@H]1C(=O)C(=C([C@@]2([C@H]1C[C@H]1C(=C(O)c3c([C@H]1O)c(Cl)ccc3O)C2=O)O)O)C(=O)N)C.Cl,-0.771201268,1.6106,501.314
,C3563,OAUQNCDVPLLEAH-UHFFFAOYSA-N,CCCCCCC(C(=O)O)CCCC,-4.472424896,3.8478,200.318
,C6387,OAWRXBDGRIPUMA-UHFFFAOYSA-N,CNCCOC(c1ccccc1)c1ccccc1.Cl,-2.486591521,4.2049,277.789
,C6067,OAZCRIJJSHBIQW-UHFFFAOYSA-N,CCCCC(COC(=O)N)(COC(=O)N)CC,-2.674639049,3.1642,246.303
,C4701,OBBCSXFCDPPXOL-UHFFFAOYSA-N,CCN1CCCC(C1)OC(=O)C(c1ccccc1)(C1CCCC1)O,-3.606082715,3.0298,331.449
,C6375,OBDQAMHBCJKXJD-UHFFFAOYSA-N,CCS(=O)(=O)c1ccc(cc1)OCC(CN1CCN(CC1)c1ccccc1)O.Cl.Cl,-2.494228289,4.7298,477.445
,C8647,OBFGNODOJKVYIR-UHFFFAOYSA-N,[O-][N+](=O)c1nccn1CC(COC)O,-0.742607087,0.3218,201.18
,C4932,OBGBGHKYJAOXRR-UHFFFAOYSA-N,CCNc1nc(OCC)nc(n1)CC,-3.436694073,1.3375,196.25
,C5270,OBIXHSPVWCWIOW-UHFFFAOYSA-N,C[NH+](C(C=C(c1cccs1)c1cccs1)C)C.[Cl-],-3.18690565,-0.2217,299.882
,C7518,OBKHYUIZSOIEPG-SSDOTTSWSA-N,COC1=CC(=O)c2c(C1=O)cccc2,-1.726926445,1.5959,188.179
,C7314,OBMLHUPNRURLOK-VHUAIRPZSA-N,CN1CCCC1c1c[nH]c2c1cc(F)cc2,-1.876605979,3.0116,218.27
,C336,OBNCKNCVKJNDBV-UHFFFAOYSA-N,C[C@@H]1CCC(C1)(C)C,-4.48,2.8326,112.213
,C185,OBNNFQUTTOFCRL-UHFFFAOYSA-N,O[C@@H]1CC[C@@H]2[C@@]1(C)CC[C@@H]1[C@H]2CC[C@@H]2[C@@]1(C)C[C@@H]1S[C@@H]1C2,-5.4099998,4.4839,306.506
,C1310,OBNUTEJYDRDZQQ-UHFFFAOYSA-N,CCCC(=O)OCC,-1.28,1.3496,116.158
,C9655,OBOWRTHMVVMXTI-UHFFFAOYSA-L,C#CCCOCn1ccc(=C[NH+]=O)cc1.[Cl-],0.618547366,-3.6444,240.686
,C8463,OBRDCSSSDNLWTA-UHFFFAOYSA-N,CC(=O)Nc1ccc(cc1)OCC(C(O)C)O,-0.931732033,0.8385,239.268
,C9360,OBURDMXZDVFAKK-UHFFFAOYSA-N,CC[N+](CCOCCC[N+](C)(C)C)(CC)C.[I-].[I-],0.313166279,-4.4063,486.215
,C6681,OBZDRKHRQYPQDZ-SACNDDTHSA-N,NNC(Cc1cccc(c1)Cl)C,-2.287752369,2.8255,184.666
,C6920,OBZHEBDUNPOCJG-SMVPYXKTSA-N,Cn1c2nc([nH]c2c(=O)n(c1=O)C)C1CCC1,-2.14180958,0.2278,234.254
,C9063,OBZJZDHRXBKKTJ-JTFADIMSSA-N,OS(=O)(=O)O.CN[C@H]1[C@H](O)[C@H]2O[C@@H]3O[C@H](C)CC(=O)[C@@]3(O[C@@H]2[C@H]([C@H]1O)NC)O.O.O.O.O,-0.091528684,-1.973,502.489
,C1776,OCAKLJJBSJLFGA-UHFFFAOYSA-N,O=C(O[C@H]1CC[C@]2(C(C1(C)C)CC[C@@]1([C@@H]2C(=O)C=C2[C@@]1(C)CC[C@@]1([C@@H]2C[C@@](C)(CC1)C(=O)O)C)C)C)CCC(=O)O,-9.689760328,6.8283,570.757
,C9043,OCAPBUJLXMYKEJ-UHFFFAOYSA-N,OC[C@H]1O[C@H]([C@@H]([C@@H]1O)O)n1cc(c2c1ncnc2N)C(=O)N,-0.130519177,-0.9946,309.278
,C4718,OCDGBSUVYYVKQZ-UHFFFAOYSA-N,OCC(C(=O)N1C2CCC1CN(C2)C)(c1ccccc1)c1ccccc1,-3.594276093,2.1458,350.454
,C2213,OCESZSGMAAGZGO-UHFFFAOYSA-N,c1ccc(cc1)c1ccc(cc1)C(n1ccnc1)c1ccccc1,-6.452507579,5.1878,310.392
,C7897,OCGNHCSQAXMFEA-UHFFFAOYSA-N,CN(Cc1c[nH]c2c1cccc2)C,-1.454342905,2.2295,174.242
,C3455,OCHUSCDFUYOEMO-UHFFFAOYSA-N,Nc1ccc2c(c1)nc1c(c2)ccc(c1)Cl,-4.580351812,4.2048,228.677
,C3834,OCJBOOLMMGQPQU-UHFFFAOYSA-N,OC(=O)Cc1ccc2c(c1)N(C)C(S2)c1ccccc1,-4.219866156,3.6194,285.361
,C7502,OCJVHIVDXBSTON-UHFFFAOYSA-N,NC(=O)C(c1ccccc1)(CCN1CCOCC1)C,-1.734938904,1.7901,262.347
,C637,OCJYIGYOJCODJL-UHFFFAOYSA-N,Clc1ccc(cc1)Cl,-3.27,2.9934,147.002
,C3627,OCKPCBLVNKHBMX-UHFFFAOYSA-N,OCCN1CCN(CC1)CC(=O)N1c2ccccc2Sc2c1cc(Cl)cc2.Cl.Cl,-4.411201862,4.624,476.847
,C2386,OCSOHUROTFFTFO-UHFFFAOYSA-N,Clc1ccc(cc1)C(c1ccccc1)N1CCN(CC1)Cc1cccc(c1)C,-6.05092207,5.4314,390.948
,C441,OCSRIEOBSUDSMV-UHFFFAOYSA-N,CCCCc1ccccc1,-4.0599999,3.0292,134.218
,C8576,OCUFBKUHLIPEEP-GQCTYLIASA-N,OC(c1ccccc1)COC(=O)N,-0.816127439,1.5156,181.189
,C7867,OCWGRWAYARCRTQ-UHFFFAOYSA-N,Cn1c(=O)n(CC=C)c(cc1=O)N,-1.479994983,-0.1036,181.192
,C3585,OCYJXSUPZMNXEN-RKDXNWHRSA-N,CCC(=O)N1C2CCC1CN(C2)C/C=C/c1cccc(c1)Cl,-4.458256632,3.3142,318.841
,C9845,OCYSGIYOVXAGKQ-FVGYRXGTSA-N,CN(CC(Cl)C)C.Cl,0.801161564,1.9773,158.069
,C7275,ODAJVSVRPUSJQQ-UHFFFAOYSA-M,OC[C@H]([C@@H](c1ccc(cc1)[N+](=O)[O-])O)N,-1.911782265,1.1713,212.203
,C9745,ODCRDIUZBXHSBN-UHFFFAOYSA-N,CNC[C@@H](c1cccc(c1)O)O.Cl,0.691081466,1.8379,203.666
,C5075,ODCUSWJXZDHLKV-UHFFFAOYSA-N,C=CCC1(C(CC)C)C(=O)NC(=S)N=C1[O-].[Na+],-3.328898163,1.6031,262.304
,C6383,ODCWYMIRDDJXKW-UHFFFAOYSA-N,COc1ccc(cc1)CCCCNC(CSS(=O)(=O)O)C,-2.489621293,4.0037,333.467
,C2990,ODFFJVKYNZZQHO-UHFFFAOYSA-N,OCCN(C(=O)C(Cl)Cl)Cc1ccc(cc1)Oc1ccc(cc1)[N+](=O)[O-],-5.124095387,4.0349,399.225
,C324,ODFJOVXVLFUVNQ-UHFFFAOYSA-N,CCNc1nc(NCC)nc(n1)Cl,-4.5500002,1.5346,201.657
,C6051,ODGIMMLDVSWADK-UHFFFAOYSA-N,COc1ccc2c(c1)c(C)cc(n2)OCCCNCCSS(=O)(=O)O,-2.68403815,3.918,386.486
,C9084,ODGVWYWNVOTPQG-UHFFFAOYSA-M,CC(=O)Nc1cc(ccc1O)[As](=O)(O)O,-0.061261827,-1.0154,275.09
,C7087,ODHYJNHEJSHJAC-UHFFFAOYSA-N,FC(c1ccc(cc1)N)(F)F,-2.042220948,2.8688,161.124
,C5131,ODJHQMBSMIPWOW-UHFFFAOYSA-N,CCC1CCC(C21C(=O)[N-]C(=S)NC2=O)C.[Na+],-3.288469506,1.4032,262.304
,C7078,ODJLBQGVINUMMR-HZXDTFASSA-N,CCN(CCC(=O)c1ccc(cc1)OC)CC.Cl,-2.050410118,3.4118,271.783
,C3979,ODKMQTILEDNYHL-UHFFFAOYSA-N,CCCCN1CCC(CC1)(Cl)c1ccccc1.Cl,-4.121321877,4.7565,288.256
,C6031,ODKNJVUHOIMIIZ-RRKCRQDMSA-N,O=C[C@@]12CC[C@@H](C[C@@]2(O)CC[C@@H]2[C@@H]1CC[C@]1([C@]2(O)CC[C@@H]1C1=CC(=O)OC1)C)O,-2.695391274,1.8982,404.497
,C6547,ODLGFPIWRAEFAN-PFEQFJNWSA-N,CCCN1CCCN(C1=O)CCC,-2.375064255,1.8099,184.279
,C8051,ODLMAHJVESYWTB-UHFFFAOYSA-N,OC[C@H]1O[C@H](C[C@@H]1O)n1cc(F)c(=O)[nH]c1=O,-1.315730503,-1.6836,246.192
,C2547,ODLUTVBIDGJWAA-UHFFFAOYSA-N,COc1ccc2c(c1)N(C[C@@H](CN(C)C)C)c1c(S2)cccc1.Cl,-5.739390314,5.3626,364.933
,C606,ODMDVXBFLZLMOV-UHFFFAOYSA-N,CCCc1ccccc1,-3.3699999,2.6391,120.192
,C6834,ODNZLRLWXRXPOH-UHFFFAOYSA-N,O=C(c1ccc(cc1)[N+](=O)[O-])Nc1n[nH]nn1,-2.184849098,0.9564,234.172
,C2575,ODPSQUCKFGXZLL-UHFFFAOYSA-N,O=CC(c1ccc2c(c1)ccc1c2cccc1)C,-5.701382665,4.2954,234.292
,C684,ODQWQRRAPPTVAG-BOPFTXTBSA-N,Nc1cnn(c(=O)c1Br)c1ccccc1,-3.1199999,2.1584,266.094
,C5392,ODSCUBSJIFLFPF-UHFFFAOYSA-N,CCCCC(COC(=O)N)(COC(=O)N(C)C)C,-3.105900741,2.6767,260.33
,C593,ODWHXYVTBJEFNG-UHFFFAOYSA-N,CN(CC/C=C/1\c2ccccc2OCc2c1cccc2)C,-3.4000001,3.9624,279.376
,C6420,ODYKCPYPRCJXLY-PZORDLPLSA-N,CCCCC(=O)c1ccc(cc1)N,-2.459633142,3.2229,177.243
,C6696,ODZHRFXEXCFPRQ-UHFFFAOYSA-N,CCCCCC(CCC)NCCSS(=O)(=O)O,-2.273491868,4.3327,283.451
,C2385,OEAIWCFLDKVTJA-UHFFFAOYSA-N,O[C@@H]1C[C@@H]2[C@]([C@H]1O)(C)CC[C@H]1[C@H]2CCc2c1ccc(c2)OC1CCCC1,-6.051830381,4.1958,356.498
,C5002,OEAROORILQLHRU-UHFFFAOYSA-N,O=C(Nc1ccccc1)OCCCN1CCCCC1C,-3.384601761,3.5105,276.374
,C1999,OEAWWTFUTOCGLS-UHFFFAOYSA-N,Clc1ccc2c(c1)C1(CCC(C=C1)N(C)C)c1ccccc1C=C2.Cl,-7.17125782,6.1921,372.331
,C2764,OEBRKCOSUFCWJD-UHFFFAOYSA-N,COc1cc2c(cc1OC)CC[NH+](C2C(Cc1ccc(cc1)Cl)C)C.[Br-],-5.416360793,1.9211,440.802
,C5463,OEEHXSFHUNVJJI-UHFFFAOYSA-N,NCCc1csc2c1cc(Br)cc2.Cl,-3.06146879,4.6673,292.623
,C7916,OEPKDBQOTLDTNC-UHFFFAOYSA-N,COP(=O)(OC=C(Cl)Cl)OC,-1.441243329,2.6804,220.976
,C3005,OEPQVKRTPFTHNA-UHFFFAOYSA-N,N#CC(c1ccc2c(c1)cccc2)(CC=C(C)C)CCN(C)C.Cl,-5.107046635,5.71118,342.905
,C7217,OETBURNRZVFMMY-UHFFFAOYSA-N,COCP(=O)(c1ccccc1)c1ccccc1,-1.948889416,2.6044,246.241
,C2327,OETHQSJEHLVLGH-UHFFFAOYSA-N,Oc1c(CN2CCCCC2)cc(cc1CN1CCCCC1)C(c1ccccc1)(C)C.Br.Br,-6.146157062,7.4819,568.427
,C5379,OEUGFBQSJPZZFJ-UHFFFAOYSA-N,COc1cc(cc(c1OC)OC)C(=O)N(C(C)C)C(C)C,-3.110544134,2.9714,295.374
,C9833,OEVLSXWDRPDGPK-UHFFFAOYSA-N,CN(C(=N)N=C(N)N)C.Cl,0.780874109,1.0585,165.625
,C3269,OEZZFHANQAGLDU-UHFFFAOYSA-N,Cc1nc2ccccc2c(=O)n1c1ccccc1[N+](=O)[O-].Cl,-4.768859591,3.9275,317.727
,C2458,OFAIGZWCDGNZGT-UHFFFAOYSA-N,CN1CCN(CC1)CCCC1c2ccccc2Sc2c1cccc2.Cl.Cl,-5.89996513,5.7905,411.431
,C8684,OFBIFZUFASYYRE-UHFFFAOYSA-N,COC(c1ccccc1)CN(C)C,-0.69478209,1.9357,179.259
,C3941,OFBQJSOFQDEBGM-UHFFFAOYSA-N,CCN(CCOC(=O)C1(CCCC1)c1ccccc1)CC,-4.147027826,3.3834,289.412
,C5014,OFCNXPDARWKPPY-UHFFFAOYSA-N,CCOC(=O)c1ncn2c1CN(C)C(=O)c1c2ccc(c1)F,-3.376011713,1.7116,303.288
,C665,OFDMOELKFCRQKE-UHFFFAOYSA-N,CCCCC,-3.1800001,2.1965,72.1488
,C934,OFDYMSKSGFSLLM-UHFFFAOYSA-N,O=c1[nH]cnc2c1cn[nH]2,-2.3800001,-0.3538,136.111
,C5527,OFHCOWSQAMBJIW-AVJTYSNKSA-N,CCOC(=O)N1C(OC)Oc2c1cccc2,-3.022412807,2.0369,223.225
,C180,OFOPDXDDEDPPBK-UHFFFAOYSA-L,CCN(c1c(cc(c(c1[N+](=O)[O-])N)C(F)(F)F)[N+](=O)[O-])CC,-5.4699998,4.5778,322.241
,C1758,OFPXSFXSNFPTHF-UHFFFAOYSA-N,CC(CCC[C@H]([C@H]1CC[C@@H]2[C@]1(C)CCC/C/2=C\C=C/1\C[C@@H](O)C[C@@H](C1=C)O)C)C,-10.32860405,6.5898,400.637
,C9478,OFVLGDICTFRJMM-NWKLCKOQSA-N,CCC[N+](CCOCC[N+](CCC)(C)C)(C)C.[Br-].[Br-],0.391209822,-4.0162,406.241
,C3513,OFZCIYFFPZCNJE-UHFFFAOYSA-N,OC(=O)CCc1nc(c(o1)c1ccccc1)c1ccccc1,-4.522664589,4.0258,293.317
,C687,OGAKLTJNUQRZJU-UHFFFAOYSA-N,CN([C@@H]1C(=C(C(=O)N)C(=O)[C@]2([C@H]1C[C@H]1C(=C2O)C(=O)c2c([C@@]1(C)O)cccc2O)O)O)C,-3.1199999,0.4859,444.435
,C5661,OGBHACNFHJJTQT-UHFFFAOYSA-M,CCCC(COC(=O)N)(COC(=O)NC(C)C)C,-2.938409653,3.1139,260.33
,C3327,OGBUMNBNEWYMNJ-UHFFFAOYSA-N,OC(c1ccccc1)(c1ccccc1)CCCN1CCCCC1,-4.696106651,4.1265,309.445
,C5351,OGDVEMNWJVYAJL-LEPYJNQMSA-N,CCCCOC(=O)c1ccc(cc1)[O-].[Na+],-3.13348269,2.7873,216.209
,C1918,OGGXGZAMXPVRFZ-UHFFFAOYSA-N,CCCCCCCCCCCCCCCCCCOCC(CO)O,-7.720717358,5.6177,344.572
,C7022,OGHNVEJMJSYVRP-UHFFFAOYSA-N,CCOc1ccc2c3c1O[C@@H]1[C@@]43CCN([C@H](C2)[C@@H]4C=C[C@@H]1O)C,-2.078955425,1.8291,313.391
,C9943,OGIYDFVHFQEFKQ-UHFFFAOYSA-N,C[As](=O)(O)C,1.161157203,0.111,137.997
,C2495,OGJPXUAPXNRGGI-UHFFFAOYSA-N,COc1ccccc1OCCNCC(COc1cccc2c1c1ccccc1[nH]2)O,-5.843447253,4.1289,406.474
,C3238,OGMADIBCHLQMIP-UHFFFAOYSA-N,CS(=O)(=O)O.Cc1ccc(cc1)N(c1cccc(c1)O)CC1=NCCN1,-4.819473768,3.1896,377.458
,C8977,OGNKZBOWNPYIDD-UHFFFAOYSA-N,CCn1cc(C(=O)O)c(=O)c2c1cc(N1CCNCC1)c(c2)F,-0.254071933,1.6621,319.331
,C9907,OGPGUQWXWFCVNG-UHFFFAOYSA-N,NCCS.Cl,0.9446102,1.3772,113.61
,C9495,OGQDIIKRQRZXJH-UHFFFAOYSA-N,Cc1cc[nH+]c2c1cccc2.[Cl-],0.408337863,-1.0337,179.646
,C6331,OGWKCGZFUXNPDA-XQKSVPLYSA-N,CCC1=CC(N(C(C1)(C)C)C)(C)C,-2.518090206,3.1534,181.318
,C2732,OGXBVBBMMWSZJO-UHFFFAOYSA-N,CNCCCC1c2ccccc2C=Cc2c1cccc2.Cl,-5.459859141,5.4948,299.838
,C2660,OGYDFHUEGLLFKA-UHFFFAOYSA-N,O=CN1c2cc(OC)c(cc2[C@]23[C@@H]1[C@@](O)(C(=O)OC)[C@H](OC(=O)C)[C@]1([C@@H]3N(CC2)CC=C1)CC)[C@]1(C[C@@H]2CN(CCc3c1[nH]c1c3cccc1)C[C@](C2)(O)CC)C(=O)OC,-5.560604702,4.0942,824.958
,C4591,OGYFATSSENRIKG-UHFFFAOYSA-N,CCOC(=O)N(C1CC1)Cc1ccccc1,-3.669834102,2.8075,219.28
,C6904,OHAZESKFCAUFBA-UHFFFAOYSA-N,COCCn1c(=O)c2n(C)cnc2n(c1=O)C,-2.146578501,-0.9199,238.243
,C148,OHBLHFXKSYTWQO-UHFFFAOYSA-N,Clc1ccc(cc1)CN(C(=O)Nc1ccccc1)C1CCCC1,-5.9099998,5.3897,328.836
,C7189,OHBQPCCCRFSCAX-UHFFFAOYSA-N,CCC1(C(=O)NC(=O)N(C1=O)CN1CCOCC1)c1ccccc1.Cl,-1.970150914,1.7091,367.827
,C2655,OHDBFWMNVLRMCY-UHFFFAOYSA-N,CN1CCN(CC1)CCC=C1c2ccccc2Sc2c1cccc2.Cl.Cl,-5.566838639,5.7002,409.416
,C7142,OHDRNJZYQXBZGG-UHFFFAOYSA-L,COc1ccc(cc1)OC,-2.002730647,1.7038,138.164
,C3498,OHEKTOKJOFXXFV-UHFFFAOYSA-N,CCCCOc1nc(OCCCC)cc(c1)C(=O)N[NH2+]C.[Cl-],-4.539564534,-1.3277,331.838
,C9361,OHMHBGPWCHTMQE-UHFFFAOYSA-N,CCC[N+](CCOCC[N+](C)(C)C)(CC)C.[I-].[I-],0.313166279,-4.4063,486.215
,C2263,OHMYIIRCLXKUMF-UHFFFAOYSA-N,CNC(CC12CC3CC(C1)CC(C2C1CCCCC1)C3)C.Cl,-6.317271318,6.2001,325.96
,C7332,OHSUFLCLEIOGIC-UNPWXMBTSA-N,ClC(C(F)(F)F)Cl,-1.862259194,2.3524,152.931
,C7354,OHXHEMDRMDVRBI-VQHVLOKHSA-N,CCCCC(=O)N1C2CCC1CN(C2)C,-1.84144001,1.3574,210.316
,C6885,OHXVNPLQCLJGEX-UHFFFAOYSA-N,CN1CC[C@@]23[C@H]([C@H]1Cc1c3c(O)c(cc1)O)CCCC2.Cl,-2.160715315,3.5259,309.831