Name,Compound ID,InChIKey,SMILES,logS,logP,MW
,C5820,FWOOQMMHLXHORO-UHFFFAOYSA-N,O[C@H]([C@H](C(=O)O)O)C(=O)O.C=CCN1CC[C@@]23[C@H]([C@H]1Cc1c3cc(cc1)O)CCCC2,-2.835586404,1.4519,433.495
,C4971,FWPKDESKJMMUSR-UHFFFAOYSA-N,CCC(C(c1ccccc1)O)(C(=O)OCC)CC,-3.401140394,3.0895,250.333
,C8649,FWQYPLYAWXMHTR-UHFFFAOYSA-N,CCCCCC(=O)NO,-0.737639831,1.463,131.173
,C4047,FWTLMXBRDIEOJQ-UHFFFAOYSA-N,Oc1ccc(cc1)S(=O)(=O)N1C(=O)NC(=O)C1(c1ccccc1)c1ccccc1,-4.074557076,3.924,408.427
,C7028,FWWDFDMCZLOXQI-UHFFFAOYSA-N,CCCN1CCCN(C1=S)CCC,-2.071327397,1.9748,200.344
,C6685,FWXCTXLSDFLQJC-UHFFFAOYSA-N,O=C(C(C)(C)C)NNCc1ccccc1,-2.285092293,2.6353,206.284
,C2635,FWXKHHNBKIVAQU-UHFFFAOYSA-M,CCCCCCCOc1cccc(c1)NC(=O)OCC[NH+]1CCCCC1.[Cl-],-5.599208683,2.2993,398.967
,C4500,FWYFIIQCOLEFQP-UHFFFAOYSA-N,[O-]C(=O)c1ccc(cc1)NS(=O)(=O)Cc1ccccc1.[Na+],-3.728066951,2.1458,313.304
,C6001,FWZMBTIUIQUJFF-UHFFFAOYSA-N,C[NH+](CCN(c1ccccc1)Cc1cccs1)C.[Cl-],-2.712879435,-1.0968,296.859
,C5130,FWZMBTIUIQUJFF-ZCFIWIBFSA-N,CCC(C1(CC(=C)Br)C(=O)NC(=O)NC1=O)C,-3.28965659,2.3412,303.152
,C828,FXBRVWUWVBAZKC-UHFFFAOYSA-N,CC[C@H](C1(CC(=C)Br)C(=O)NC(=O)NC1=O)C,-2.6500001,2.3412,303.152
,C9701,FXCPLDHPNOXGOM-UHFFFAOYSA-N,CN(CCSC(=N)N)C.Cl.Cl,0.657269454,2.5787,220.164
,C5730,FXCYKPOHYGUTNI-UHFFFAOYSA-N,CCCCN1CCN(C1=O)CCCC,-2.895944074,2.2,198.305
,C3417,FXEOMSOMYPLDTM-UHFFFAOYSA-N,CN(CC(=O)N1C(C)(C)CC(=CC1(C)C)c1ccccc1)C,-4.61325536,3.359,300.438
,C7382,FXFYOPQLGGEACP-UHFFFAOYSA-N,OS(=O)(=O)SCCNCCCOc1ccc2c(n1)cccc2,-1.826999106,3.601,342.434
,C6725,FXHBIVKHYQDNOX-UHFFFAOYSA-N,Cc1ccc2c(c1)ccc(=O)o2,-2.261438469,2.1014,160.169
,C6910,FXHGMKSSBGDXIY-UHFFFAOYSA-N,C=CCC1(CC=C)C(=O)NC(=O)N(C1=O)C,-2.145706148,1.0999,222.24
,C1171,FXHOOIRPVKKKFG-UHFFFAOYSA-N,CCCCCCC=O,-1.7,2.1557,114.185
,C1658,FXIHTBJWEKIXHE-UHFFFAOYSA-N,CC(=O)N(C)C,1.11,0.0945,87.1204
,C9572,FXNYSZHYMGWWEZ-UHFFFAOYSA-N,SC/C(=[NH+]\CCC[NH+]1CCOCC1)/N.[Cl-].[Cl-],0.537232245,-7.0633,290.254
,C8387,FXOXLNFTVYGMBK-UHFFFAOYSA-N,Cn1c(=O)n(CC(=C)C)c(cc1=O)N,-0.989498762,0.2865,195.218
,C7252,FXSNEEBOGAOVIM-UHFFFAOYSA-N,CC(COC1(OCCN(C1)C)c1ccccc1)C.Cl,-1.923708341,3.2139,285.81
,C5450,FXTKWBZFNQHAAO-UHFFFAOYSA-N,FC(C(C(Cl)F)(F)F)F,-3.068214216,2.4212,168.493
,C5985,FXYIDUGIODSYAI-UHFFFAOYSA-N,Oc1cccc(c1)I,-2.72785958,1.9968,220.008
,C4077,FXYZDFSNBBOHTA-UHFFFAOYSA-N,Brc1cc(Br)c2c(c1)nc(o2)N,-4.060444996,3.5162,291.927
,C9734,FXZFKDKFRLPXDC-UHFFFAOYSA-N,N=C(N1CCOCC1)N=C(N)N.Cl,0.682642968,0.767,207.661
,C3192,FYAMXEPQQLNQDM-UHFFFAOYSA-N,CCCCOC(=O)c1c(C)ccc(c1OCCN(C)C)C(C)C,-4.876700416,4.0157,321.454
,C9151,FYANTOKNZNJBQX-UHFFFAOYSA-N,O=P(N1CC1)(N1CC1)N1CC1,0.064974501,-0.145,173.153
,C5195,FYFDQJRXFWGIBS-UHFFFAOYSA-N,CC(C(c1ccccc1)c1ccccc1)CN(C)C.Cl,-3.244684835,4.8182,289.843
,C601,FYFNFZLMMGXBMT-UHFFFAOYSA-M,[O-][N+](=O)c1ccc(cc1)[N+](=O)[O-],-3.3900001,2.5494,168.107
,C5612,FYGCJWVUNPQAFB-UHFFFAOYSA-N,CCCC[N+](CCCC)(CCCC)CC.[OH-],-2.969956715,4.0466,231.418
,C6054,FYGHSUNMUKGBRK-UHFFFAOYSA-N,O=C(N(C)C)Cn1c(C)cnc1[N+](=O)[O-],-2.682325209,0.7111,212.206
,C660,FYGJHBPMTIZVSW-UHFFFAOYSA-N,Cc1c(C)cccc1C,-3.2,2.6118,120.192
,C4043,FYNJPVIXOGBPMW-UHFFFAOYSA-N,O=C(C(c1ccccc1)(CN1CCCC1)C)c1ccccc1.Cl,-4.079007507,4.6629,329.864
,C4780,FYOSQQMCCODNJV-UHFFFAOYSA-N,CN(C(c1ccc(cc1)Oc1ccccc1)C)C,-3.557192393,4.1015,241.328
,C8073,FYOZSKRVTISLHE-UHFFFAOYSA-N,CNC1(C)CC2CC1CC2,-1.293736995,2.1754,139.238
,C4817,FYPMFJGVHOHGLL-UHFFFAOYSA-N,CCOC(=O)c1cc2c(oc1=O)ccc1c2cccc1,-3.528201759,3.1229,268.264
,C1739,FYSBYQYDBNHFED-UHFFFAOYSA-N,CC(Sc1cc(c(c(c1)C(C)(C)C)O)C(C)(C)C)(Sc1cc(c(c(c1)C(C)(C)C)O)C(C)(C)C)C,-11.36117614,9.9083,516.842
,C6981,FYXPTECHEQODIG-UHFFFAOYSA-M,CC1C[NH+](C(C1)c1c[nH]c2c1cccc2)C.[Cl-],-2.100422504,0.3367,250.767
,C9440,FYXWDSGGZAMYFZ-UHFFFAOYSA-N,C[N+](CCC[n+]1cccc2c1c1ccccc1[nH]2)(C)C.[Br-].[Br-],0.367340277,-3.2871,429.193
,C1982,FYZBOYWSHKHDMT-UHFFFAOYSA-N,CC[n+]1c(/C=C/C=C/C=c\2/sc3c(n2CC)cccc3)sc2c1cccc2,-7.252366416,5.576,391.572
,C287,FYZGXAKJVDHGDR-UHFFFAOYSA-N,CCOC(=O)CCN(C(C)C)SN(C(=O)Oc1cccc2c1OC(C2)(C)C)C,-4.71,4.0575,410.528
,C8568,FYZHOAYTFZAELD-UHFFFAOYSA-N,NNC(=O)c1ccc(cc1O)N,-0.823479425,1.2503,167.165
,C5748,FZDWNMZVOSEQPI-UHFFFAOYSA-N,Nc1ccc(cc1)C(=O)Nc1ccc(c(n1)C)C,-2.881487279,3.1871,241.288
,C2111,FZEIWORKISALCO-UHFFFAOYSA-N,BrCCN(c1ccc(cc1)OC(=O)c1ccc(cc1)OC)CCBr,-6.778685458,4.5106,457.156
,C6784,FZERHIULMFGESH-UHFFFAOYSA-N,C=CCOc1ccccc1C(=O)N,-2.227281771,2.0506,177.2
,C1291,FZFUUSROAHKTTF-UHFFFAOYSA-N,CC(=O)Nc1ccccc1,-1.33,1.718,135.163
,C14,FZGAXGPIOLWEAX-UHFFFAOYSA-N,Clc1ccc(c(c1c1c(Cl)ccc(c1Cl)Cl)Cl)Cl,-8.6499996,7.274,360.878
,C9064,FZGZDDRZAZBANV-UHFFFAOYSA-N,CCC(C(c1ccccc1)O)N.Cl,-0.089849131,2.9596,201.693
,C6368,FZIIBDOXPQOKBP-UHFFFAOYSA-N,OCC(COc1ccc(cc1)Br)O,-2.496876922,1.1811,247.086
,C8829,FZMYJEWPAHFZNM-UHFFFAOYSA-N,CC1CCO1,-0.466160516,0.7952,72.1057
,C2587,FZNPVRNXYVQHOC-UHFFFAOYSA-N,CCN(CCOC(=O)C1c2ccccc2Cc2c1cccc2)CC.Cl,-5.680534681,4.4097,359.89
,C5102,FZNXAQMQVKBXDR-UHFFFAOYSA-N,CCC(=O)c1ccc(cc1)OCC(CN1CCN(CC1)c1ccc(c(c1)OC)OC)O.Cl.Cl,-3.31105723,4.4653,501.443
,C3213,FZSVSABTBYGOQH-XFFZJAGNSA-N,CCN(CCOc1ccc2c(c1)sc(n2)N(C)C)CC.Cl.Cl,-4.855299423,4.6869,366.349
,C1192,FZVUISTUCPQRLS-UHFFFAOYSA-N,CSC/C(=N/OC(=O)NC)/C(C)(C)C,-1.62,2.4984,218.316
,C6247,FZYOVNIOYYPUPY-ZTWDQPHTSA-N,CN1CC2CCC(C1)N2C(=O)c1ccc(cc1)Cl,-2.566716429,2.1344,264.751
,C5917,GAGIXICTGYVZBX-UHFFFAOYSA-N,CO[C@H]1/C=C/O[C@@]2(C)Oc3c(C2=O)c2C(=O)/C(=C/NN4CCN(CC4)C)/C(=C(c2c(c3C)O)O)NC(=O)/C(=C\C=C\[C@@H]([C@@H]([C@H]([C@H]([C@H]([C@@H]([C@@H]1C)OC(=O)C)C)O)C)O)C)/C,-2.769246997,4.0217,822.94
,C3869,GAMSVHKCGRVPPR-UHFFFAOYSA-N,CC(C(c1ccccc1)(C(=O)N)CCN1CCCCC1)C,-4.19287623,3.5799,288.428
,C7267,GAMYYCRTACQSBR-UHFFFAOYSA-N,CN(CCC(c1ccccc1)(C(=O)N)CCN(C)C)C,-1.91678595,2.0134,277.405
,C8933,GAOZTHIDHYLHMS-KEOBGNEYSA-N,c1cnc2c(c1)[nH]cn2,-0.327434588,0.9579,119.124
,C1855,GAQAKFHSULJNAK-UHFFFAOYSA-N,CO[C@H]([C@@H]([C@H]1O[C@@]2(CC[C@@](O2)(C)[C@H]2CC[C@@](O2)(CC)[C@@H]2O[C@H](C[C@@H]2C)[C@H]2O[C@@](O)(CO)[C@@H](C[C@@H]2C)C)C[C@@H]([C@H]1C)O)C)[C@@H](C(=O)O)C,-8.349524225,4.2729,670.871
,C4587,GASFPZMOLAWCDO-UHFFFAOYSA-N,CCOC(=O)Nc1ccc2c(c1)N(C(=O)CCN1CCOCC1)c1c(S2)cccc1.Cl,-3.67217929,4.9845,463.978
,C5743,GATVIKZLVQHOMN-UHFFFAOYSA-N,Nc1ccc(cc1)C(=O)N(c1ncccc1C)C,-2.884235987,2.83,241.288
,C1110,GAUKOIAUVRRGOI-UHFFFAOYSA-N,ClC(Br)Br,-1.9,2.2986,208.28
,C5218,GAWAJYQYGZLYDZ-UHFFFAOYSA-N,O=C(c1ccccc1)NCCN1CCN2C(C1)Cc1c(C2)[nH]c2c1cccc2,-3.228456504,2.9069,374.479
,C3887,GBABOYUKABKIAF-IELIFDKJSA-N,CC(NC(=O)c1cc(Br)cc(c1O)C)C,-4.183400722,2.9922,272.138
,C1887,GBDZXPJXOMHESU-UHFFFAOYSA-N,CCC1=C[C@@H]2CN(C1)Cc1c3ccccc3[nH]c1[C@@](C2)(C(=O)OC)c1cc2c(cc1OC)N([C@@H]1[C@@]32CCN2[C@H]3[C@@](CC)(C=CC2)[C@H]([C@]1(O)C(=O)OC)OC(=O)C)C,-7.968782462,4.6944,778.932
,C318,GBFLZEXEOZUWRN-VKHMYHEASA-N,Clc1c(Cl)ccc(c1Cl)Cl,-4.5700002,4.3002,215.892
,C9802,GBGXVCNOKWAMIP-CQSZACIVSA-N,OC(=O)CSC[C@@H](C(=O)O)N,0.746686231,-0.0836,179.194
,C885,GBHPLASTJYCUFJ-UHFFFAOYSA-N,O[C@@H](c1ccccc1)Cc1ccccc1,-2.52,2.9627,198.26
,C4564,GBIHOLCMZGAKNG-ZEQRLZLVSA-N,CCCC(COC(=O)Nc1ccc(cc1)C(=O)O)(CO)C,-3.686411324,2.805,295.331
,C90,GBIQBERJADTQJA-UHFFFAOYSA-M,N#C[C@@H](c1cccc(c1)Oc1ccccc1)OC(=O)[C@H](c1ccc(cc1)OC(F)F)C(C)C,-6.8800001,6.62798,451.462
,C4223,GBKLAYXZNQSPBS-XYSQQLOGSA-N,[O-]C(=O)c1ccc(c(c1)I)F.[Na+],-3.94350658,0.7938,287.99
,C9508,GBKONKCASNNUQD-ATVRCVQASA-N,ClCCNC[C@H]([C@H]([C@@H]([C@@H](CNCCCl)O)O)O)O.Cl.Cl,0.422379539,0.4726,378.121
,C7571,GBNSTFYSASRNQI-UHFFFAOYSA-N,OS(=O)(=O)c1ccc2c(c1)cccc2.CCC(=O)O[C@@](c1ccccc1)([C@H](CN(C)C)C)Cc1ccccc1.O,-1.691907515,7.3785,565.72
,C7020,GBPZSCQLDXUGNO-UHFFFAOYSA-N,Clc1cc2nc(oc2c(c1)S(=O)(=O)O)N,-2.079595394,2.9721,248.644
,C6070,GBRBCGCLXXISRC-MPQAZLLSSA-N,CCC(c1ccccc1)C(=O)NC(=O)NC(=O)C,-2.67354686,2.3343,248.278
,C1876,GBROPGWFBFCKAG-UHFFFAOYSA-N,Clc1ccccc1/C=N/CC1CCC(CC1)C/N=C/c1ccccc1Cl.Cl.Cl,-8.107912568,7.9418,460.267
,C47,GBSIBTZJMPWWAV-UHFFFAOYSA-N,c1ccc2c(c1)c1ccc3c(c1cc2)ccc1c3cccc1,-7.8699999,6.2994,278.347
,C2378,GBXFEIWAUUUQFE-YGCVIUNWSA-N,CN1CCC(CC1)(OC(=O)C(c1ccccc1)c1ccccc1)c1ccccc1.Cl,-6.061795344,5.7227,421.959
,C5997,GBYNWLIJDNPFRH-UHFFFAOYSA-N,NC1=CC(=N)c2c(C1=O)cccc2.Cl,-2.71734799,2.6954,208.644
,C7490,GCAHOAMXTYBLNZ-DGJXZBFTSA-N,Nc1ccc(cc1)C(=O)Nc1ccccn1,-1.743407965,2.5703,213.235
,C370,GCFLVEVTCIKTNM-UHFFFAOYSA-N,O[C@H]1CC[C@]2([C@H](C1)[C@@H](O)C[C@@H]1[C@@H]2C[C@@H](O)[C@]2([C@H]1CC[C@@H]2[C@H](CCC(=O)O)C)C)C,-4.3499999,3.4487,408.571
,C5583,GCKMFJBGXUYNAG-MPRNQXESSA-N,Cc1ccc(cc1)C(=O)Nc1ccncc1,-2.986407676,2.7153,212.247
,C455,GCLBGKOMNXDAFZ-QXMHVHEDSA-N,O=C1CC[C@]2(C(=C1)CC[C@@H]1[C@@H]2CC[C@]2([C@H]1CC[C@@]2(C)O)C)C,-3.99,4.2693,302.451
,C4816,GCLBGKOMNXDAFZ-VAWYXSNFSA-N,C=CCNC(=O)/C(=C(\c1ccccc1)/C)/C,-3.528215303,3.1731,215.291
,C4815,GCNTZFIIOFTKIY-UHFFFAOYSA-N,C=CCNC(=O)/C(=C(/c1ccccc1)\C)/C,-3.528215303,3.1731,215.291
,C1646,GCOXVMRWVAFFEE-UHFFFAOYSA-N,Oc1ccncc1,1.02,0.7872,95.0993
,C5128,GCUAMEPHMLSQKS-TWNLEINFSA-N,CCC(C1(CC=C)C(=O)NC(=S)NC1=O)C,-3.290886611,1.7835,240.322
,C2677,GCUAMEPHMLSQKS-ZTXYIFKNSA-N,COc1ccc2c(c1)/C(=C/CCN(C)C)/c1c(S2)cccc1.Cl,-5.532855505,5.3452,347.902
,C2678,GCVHYGRJLCAOGI-UHFFFAOYSA-N,COc1ccc2c(c1)/C(=C\CCN(C)C)/c1c(S2)cccc1.Cl,-5.532855505,5.3452,347.902
,C9027,GCZZOZBWAZHCAN-UHFFFAOYSA-N,S=C1CCCCN1,-0.153642416,1.4161,115.197
,C5858,GDBNOCCRDMUAGE-UHFFFAOYSA-N,S=C(Nc1nccs1)Nc1ccccc1,-2.806998312,3.098,235.329
,C4607,GDEOUXOJGKXLRX-UHFFFAOYSA-N,SCCNCCCCCOc1ccc(cn1)Br.Cl,-3.66236609,4.1055,355.722
,C7197,GDGCCLGDBQIELP-UHFFFAOYSA-N,CCOC(C(CO)(CC)CC)OCC,-1.961984761,2.1842,204.306
,C4233,GDGHIDZSGIYVRJ-VMPITWQZSA-N,CCCCOc1ccc(cc1)C(=O)OCCN(CC)CC.Cl,-3.936955536,4.1661,329.862
,C5910,GDGHUKIIRSLWAL-UHFFFAOYSA-N,CCCOc1ccc(cc1)/C=C/C(=O)NO,-2.773186225,2.3849,221.252
,C3120,GDKGOXUWEBGZBY-WQTURIIHSA-N,CC(=O)OC(CN1CCN(CC1)c1ccc(cc1C)C)COc1ccccc1C(=O)C.Cl.Cl,-4.960359044,5.2456,497.454
,C2778,GDLBFKVLRPITMI-UHFFFAOYSA-N,OC[C@@H](CCC(=O)[C@H]([C@H]1C(=O)C[C@@H]2[C@]1(C)CC[C@H]1[C@H]2CC=C2[C@]1(C)CC[C@@H](C2)O)C)C,-5.39605717,4.7191,430.62
,C7278,GDLIGKIOYRNHDA-UHFFFAOYSA-N,Clc1ccc2c(c1)S(=O)(=O)N=C(N2)C,-1.908138725,2.527,230.671
,C2396,GDNKUULIIOQEJQ-UHFFFAOYSA-N,CN(CCCN1c2ccccc2CCc2c1cc(Cl)cc2)C,-6.030505234,4.5934,314.852
,C7612,GDOPTJXRTPNYNR-UHFFFAOYSA-N,Brc1ccc(nc1)OCCCNCCSS(=O)(=O)O,-1.653755639,3.2103,371.271
,C627,GDOTWPAJJGIXFK-UHFFFAOYSA-N,CC1CCCC1,-3.3,2.1965,84.1595
,C5263,GDQBPBMIAFIRIU-UHFFFAOYSA-N,OP(=O)(O)O.COc1ccc(cc1)CN(c1ccccn1)CCN(C)C,-3.194469044,1.7298,383.379
,C7587,GDRJMQGTCMCJQV-UHFFFAOYSA-N,c1ncc2c(c1)ccs2,-1.674559292,2.2963,135.186
,C8713,GDTRBAWPVCBCJA-UHFFFAOYSA-N,CCN1CCCN(C1=S)CC,-0.649672741,1.1946,172.291
,C4683,GDVWHZUHXUQPDF-UHFFFAOYSA-L,Clc1ccc2c(c1)CO[NH+](C2)CC[NH+]1CCCCC1.[Cl-].[Cl-],-3.615162518,-2.6147,353.715
,C9546,GDWRXKBWBVIFLI-UHFFFAOYSA-N,C[N+](CCC[N+](C)(C)C)(C)C.[Br-].[Br-],0.494696675,-5.2031,320.108
,C8763,GDZRJFWQCPISHE-UHFFFAOYSA-N,[O-]S(=O)(=O)O.CC[NH+](c1ccc2c(c1)oc(=O)cc2C)CC,-0.565857049,1.743,329.369
,C5711,GEBUMRFWHSVZMX-UHFFFAOYSA-N,Oc1cccc2c1nc1ccccc1c2N,-2.906066557,3.257,210.231
,C9503,GECHUMIMRBOMGK-UHFFFAOYSA-N,CNCCC(=O)c1ccc(cc1)O.Cl,0.419012597,2.3773,215.677
,C809,GEDIWDLJKRKBFT-UHFFFAOYSA-N,Nc1ccc(cc1)S(=O)(=O)Nc1ccccn1,-2.7,3.1996,249.289
,C1039,GEDLJMYPQDMOSM-UHFFFAOYSA-N,O=C(N(C)C)Oc1cc(nn1c1ccccc1)C,-2.0899999,2.2411,245.277
,C6800,GEDVVYWLPUPJJZ-UHFFFAOYSA-N,CCCCN1CCN(C1=S)CCCC,-2.213894738,2.3649,214.371
,C8492,GEFAWSVGHKMZNV-UHFFFAOYSA-N,Cc1cc2nc3ccc(=[N+](C)C)cc3sc2cc1N.[Cl-],-0.903408216,-0.0913,305.826
,C3273,GEFRPGHOOMZHRC-UHFFFAOYSA-N,CCCCN1CCC(CC1)(OC(=O)CC)c1cccc(c1)C.Cl,-4.765687708,4.7793,339.9
,C3633,GEHQTKKHEHGIJB-UHFFFAOYSA-N,OC(=O)C(c1ccc2c(c1)nc(o2)c1cccc(c1)Cl)C,-4.404065788,4.3363,301.724
,C2638,GEKNCWBANDDJJL-UHFFFAOYSA-N,COc1c(O)ccc2c1N(CCCN(C)C)c1c(S2)ccc(c1)Cl.Cl,-5.590681725,5.4756,401.35
,C7486,GELRVIPPMNMYGS-RVXRQPKJSA-N,COC(=O)CCc1ccc(cc1)OCC(CNC(C)C)O.Cl,-1.74495049,2.7228,331.835
,C4613,GELSHDSHYUNPQC-UHFFFAOYSA-N,Fc1ccc(cc1)[C@@H]1CCNC[C@H]1COc1ccc2c(c1)OCO2.Cl,-3.660731362,4.4573,365.826
,C7478,GENRUBKMOWZCII-UHFFFAOYSA-M,CCCCCCC(NCCSS(=O)(=O)O)C,-1.752819655,3.9426,269.425
,C7753,GEOODLRPOTYCMR-UHFFFAOYSA-N,CCC(=O)C(c1ccccc1)(c1ccccc1)CC([N+](C)(C)C)C.[Cl-],-1.565444995,1.4406,359.933
,C3239,GEPMAHVDJHFBJI-UHFFFAOYSA-N,OC(=O)C(c1c(C)ccc2c1cccc2)Cc1ccco1,-4.818249133,4.1521,280.318
,C9017,GESBKELMKMNZLZ-UHFFFAOYSA-N,OC(=O)c1cccnc1.OCCN(CC(Cn1cnc2c1c(=O)n(C)c(=O)n2C)O)C,-0.164893995,-1.5015,434.446
,C7311,GETQZCLCWQTVFV-UHFFFAOYSA-N,CCOP(=O)(Nc1ccccc1)OCC,-1.877371346,3.3526,229.213
,C1633,GETTZEONDQJALK-UHFFFAOYSA-N,CN(C)C,0.83999997,0.1778,59.1103
,C891,GEXJJXJFZFVTFV-UHFFFAOYSA-N,FC(c1ccccc1)(F)F,-2.51,2.7054,146.11
,C2224,GEXXLNYKQLDCBQ-UHFFFAOYSA-N,COC(=O)C(CCc1nc2c(s1)nc(s2)CCC(C(=O)OC)(C)C)(C)C,-6.418623981,4.0164,398.54
,C6970,GEYJUFBPCGDENK-UHFFFAOYSA-M,CCC(=O)N1C2CCC1CN(C2)C,-2.108419701,0.5772,182.263
,C4904,GEYOCULIXLDCMW-UHFFFAOYSA-N,CC(c1ccc(c2c(c1)c(C)cc2S(=O)(=O)[O-])C)C.[Na+],-3.452318865,4.5165,300.348
,C1498,GEYZYDGDYWJOGO-UHFFFAOYSA-N,Nc1ccccc1N,-0.41999999,2.0134,108.141
,C3403,GFAHHDWBIRSSPA-UHFFFAOYSA-N,COc1cc2c(cc1OC)CCN(C2CCc1ccccc1[N+](=O)[O-])C,-4.629239045,4.2349,356.416
,C7035,GFBKORZTTCHDGY-UFWORHAWSA-N,CCCC(CNC)CCC.Cl,-2.064293685,3.6151,179.731
,C2538,GFBKORZTTCHDGY-UWVJOHFNSA-N,CN1CCN(CC1)CC/C=C/1\c2ccccc2Sc2c1cc(cc2)S(=O)(=O)N(C)C,-5.763921665,4.4273,443.625
,C2537,GFDXGSPTNKJZSL-UHFFFAOYSA-N,CN1CCN(CC1)CC/C=C\1/c2ccccc2Sc2c1cc(cc2)S(=O)(=O)N(C)C,-5.766201431,4.4273,443.625
,C6699,GFFGJBXGBJISGV-UHFFFAOYSA-N,CC(CCCCCCNCCSS(=O)(=O)O)C,-2.273491868,4.1902,283.451
,C1028,GFIODZPHJMSAJD-UHFFFAOYSA-N,Nc1ncnc2c1nc[nH]2,-2.1199999,0.5163,135.127
,C7472,GFJWACFSUSFUOG-ZJTJBYBXSA-M,N1CCN2C(C1)CCc1c2cccc1.Cl.Cl,-1.75514386,3.4088,261.191
,C6441,GFLRGUVCYHGCGC-UHFFFAOYSA-M,O=C1CC[C@@H]2[C@]1(C)CC[C@H]1[C@H]2CC=C2[C@]1(C)CC[C@@H](C2)OS(=O)(=O)[O-].[Na+],-2.451708586,4.4445,390.469
,C8559,GFNAMNISEWNKBH-UHFFFAOYSA-N,COc1ccc(cc1CC([N+](C)(C)C)C)OC.[Cl-],-0.836462118,-0.655,273.799
,C6002,GFNANZIMVAIWHM-CCIMGODBSA-N,OC(C(C(=O)O)O)C(=O)O.CCC(=O)OC1(CCN(CC1C)C)c1ccccc1,-2.71285979,0.622,411.446
,C518,GFNANZIMVAIWHM-OBYCQNJPSA-N,OCC(=O)[C@@]1(O)[C@H](O)C[C@@H]2[C@]1(C)C[C@@H](O)[C@]1([C@H]2CCC2=CC(=O)C=C[C@]12C)F,-3.6900001,0.6205,394.434
,C4558,GFNVVUBUWBTSAN-UHFFFAOYSA-L,OCC(=O)[C@@]1(O)[C@H](O)C[C@@H]2[C@]1(C)C[C@H](O)[C@]1([C@H]2CCC2=CC(=O)C=C[C@]12C)F,-3.692889862,0.6205,394.434
,C9370,GFOAMOJEXALILA-UHFFFAOYSA-N,CC[N+](CCC1CC[N+](CC1)(C)CC)(C)C.[I-].[I-],0.316743073,-3.6839,482.226
,C7318,GFTHYQRJEOORHK-UHFFFAOYSA-N,CN1CC2CCC(C1)N2C(=O)C(=O)Nc1ccccc1,-1.875595451,0.8789,273.33
,C2626,GFUKPDBFDRKRRO-YXLFCKQPSA-N,CN(CC(CC1(O)c2ccccc2CCc2c1cccc2)C)C,-5.616693099,3.6089,309.445
,C2276,GFWHYXLNDSQZAF-UHFFFAOYSA-N,c1cc(/C=C/c2ccccc2)nc(c1)/C=C/c1ccccc1,-6.276268726,5.4224,283.366
,C3851,GFYRIDJNJUPTMC-UHFFFAOYSA-M,CC[NH+](CCOC(=O)c1ccc(c(c1)I)F)CC.[Cl-],-4.205902345,-1.4842,401.643
,C9350,GGCSSNBKKAUURC-UHFFFAOYSA-N,CC1CCC(N1C)CCCCCC[N+](C)(C)C.[I-].I,0.30429072,1.0659,496.253
,C513,GGECDTUJZOXAAR-UHFFFAOYSA-N,COCC1(CCN(CC1)CCc1cccs1)N(c1ccccc1)C(=O)CC,-3.71,4.1527,386.551
,C6030,GGEQGDSOSYWSPU-UHFFFAOYSA-N,CC(NNC(=O)COc1ccc(cc1)Cl)C,-2.695943947,2.5298,242.702
,C1913,GGGATFRVOBEKQO-UHFFFAOYSA-N,FC(c1ccc2c(c1)N(CCCN1CCN(CC1)CCC1OCCCO1)c1c(S2)cccc1)(F)F.OC(=O)CCC(=O)O.OC(=O)CCC(=O)O,-7.750877566,5.2813,743.787
,C1897,GGGDNPWHMNJRFN-UHFFFAOYSA-N,Brc1cc(O)c(c(c1)Br)c1c(Br)cc(cc1OP(=O)(O)O)Br,-7.89552185,5.5807,581.771
,C2954,GGHPAKFFUZUEKL-UHFFFAOYSA-M,CC(=O)Nc1c(I)c(N(C(=O)C)C)c(c(c1I)C(=O)O)I,-5.158433727,3.2127,627.94
,C3233,GGJLCOPSTSMTDX-FJUODKGNSA-N,CCCCCCCCCCCCCCCCOS(=O)(=O)[O-].[Na+],-4.833880186,6.0253,344.486
,C2004,GGLIEWRLXDLBBF-UHFFFAOYSA-N,CN(CC/C=C/1\c2ccccc2Sc2c1cc(I)cc2)C.Cl,-7.148848364,5.9412,443.773
,C1012,GGLQKLQQWQDYAR-UHFFFAOYSA-N,CCOc1ccc(cc1)NC(=O)N,-2.1700001,2.3492,180.204
,C2353,GGMMWVHTLAENAS-UHFFFAOYSA-M,Clc1ccc2c(c1)n(CCC[NH+](C)C)c1ccccc1[nH]c2=O.[Cl-],-6.102922489,-0.763,366.285
,C7140,GGMPTLAAIUQMIE-UHFFFAOYSA-N,CC[N+]1(CC)CCC(C1)OC(=O)C(c1ccccc1)(c1ccccc1)O.[Br-],-2.00318506,0.0574,434.367
,C41,GGNMTJKRHHLJHH-UHFFFAOYSA-N,Clc1c(c2ccccc2)c(Cl)c(c(c1Cl)Cl)Cl,-7.9200001,6.6206,326.433
,C8429,GGOYNTDJWDKZSC-UHFFFAOYSA-N,COc1cc(cc(c1OC)OC)C(=O)N,-0.953661008,1.5116,211.215
,C2998,GGPCERYTJXDGOH-UHFFFAOYSA-N,CC(N(C)C)CC12CC3(C)CC(C1)(C)CC(C2Cl)(C3)C.Cl,-5.109252645,5.7326,334.367
,C8239,GGPYDICFDBGVIV-UHFFFAOYSA-N,O=C1Cc2ccccc2S(=O)(=O)N1C,-1.140074448,1.4085,211.238
,C3243,GGRAYWKQKPBDHR-UHFFFAOYSA-N,C[NH+](CCOC(c1ccccc1)c1ccc(cc1)c1ccccc1)C.[Cl-],-4.813701396,0.6081,367.912
,C3738,GGSUCNLOZRCGPQ-UHFFFAOYSA-N,CCC(C(=O)NC(=O)OCC)(C(=O)NC(=O)OCC)CC,-4.304385676,2.12,302.324
,C715,GGTSJKFPGKFLCZ-UHFFFAOYSA-N,CCN(c1ccccc1)CC,-3.03,2.5328,149.233
,C6194,GGTYBZJRPHEQDG-WCCKRBBISA-N,COC(=O)c1cc(cc(c1)[N+](=O)[O-])C(=O)OC,-2.599855837,1.6912,239.182
,C9824,GGUOCFNAWIODMF-UHFFFAOYSA-N,N[C@H](C(=O)O)CCCN.Cl,0.773088339,1.3398,168.622
,C764,GGXQONWGCAQGNA-FXRZFVDSSA-N,CC(=O)Nc1ccc(cc1)Cl,-2.8399999,2.3714,169.608
,C3888,GGYVFJXFWSWCEZ-UHFFFAOYSA-L,OC(C(C(=O)O)O)C(=O)O.CN1CCCN=C1/C=C/c1sccc1C,-4.183088166,0.0546,370.421
,C9497,GGYVTHJIUNGKFZ-UHFFFAOYSA-N,CC[N+](CCCCCC[N+](CC)(C)C)(C)C.[Br-].[Br-],0.408659325,-3.2526,390.241
,C8911,GHAFORRTMVIXHS-UHFFFAOYSA-L,CN1CCCCC1=O,-0.356463596,0.5666,113.158
,C3363,GHASVSINZRGABV-UHFFFAOYSA-N,Brc1c(Br)c(Br)c2c(c1Br)C(=O)OC2(c1ccc(c(c1)S(=O)(=O)[O-])O)c1ccc(c(c1)S(=O)(=O)[O-])O.[Na+].[Na+],-4.668690754,6.5799,837.997
,C1360,GHCKERHPOQWERJ-UHFFFAOYSA-N,Fc1c[nH]c(=O)[nH]c1=O,-1.0700001,-0.7977,130.077
,C4023,GHDJWZZXXNZUST-UHFFFAOYSA-N,Nc1ccc2c(c1)nc1c(c2)cccc1,-4.093540204,3.5514,194.232
,C6611,GHDPMHONBNZPGP-UHFFFAOYSA-N,CC[NH+](CCc1c[nH]c2c1cccc2)CC.[Cl-],-2.338295029,-1.3609,252.783
,C8087,GHELJWBGTIKZQW-UHFFFAOYSA-N,CCCNC(=O)Nc1ncco1,-1.283876642,1.67,169.181
,C8581,GHEZLRAEZRLJOX-UHFFFAOYSA-K,CC(N1CCCC1=O)C,-0.814408112,0.9551,127.184
,C9192,GHICCUXQJBDNRN-UHFFFAOYSA-N,CC[N+](CCOc1ccc(cc1)OCC[N+](CC)(CC)CC)(CC)CC.[I-].[I-].[I-],0.119498384,-4.7908,747.294
,C4202,GHKISGDRQRSCII-ZOCIIQOWSA-N,OC(=O)c1ccc(cc1)I,-3.963121188,1.9894,248.018
,C4995,GHMLBKRAJCXXBS-UHFFFAOYSA-N,CN1Cc2c([C@@H]3[C@H]1c1cc4OCOc4cc1C[C@@H]3O)ccc1c2OCO1,-3.390173786,2.2692,353.369
,C1632,GHOMLITVLACWGO-UHFFFAOYSA-N,Oc1cccc(c1)O,0.81,1.0978,110.111
,C3524,GHOXUIXRTCVANK-UHFFFAOYSA-N,CCC12CCN(C(C1C)Cc1c2cc(O)cc1)CC=C(C)C,-4.50832022,4.2106,299.45
,C2484,GHPODDMCSOYWNE-UHFFFAOYSA-N,O=C(Nc1ccc(cc1Sc1ccc(cc1)Cl)Cl)CCN1CCCC1,-5.852679983,5.5799,395.346
,C6493,GHSCYMOJHVOGDJ-UHFFFAOYSA-N,Cc1ccc2c(c1)OCO2,-2.41717989,1.7237,136.148
,C6994,GHVNFZFCNZKVNT-UHFFFAOYSA-N,CCN(CCOC(=O)c1ccc(cc1O)N)CC,-2.090187488,2.0542,252.309
,C587,GHXBWQDBWRSARY-DYWKTHLTSA-N,CCCCCCCCCC(=O)O,-3.4400001,3.2117,172.265
,C6683,GHZZEIOJZKXANQ-UHFFFAOYSA-N,OP(=O)(O)O.Oc1ccc2c(c1)[C@]13CCCC[C@H]3[C@@H](C2)N(CC1)C,-2.285864161,2.0897,355.366
,C5659,GIAMHXZYZSZXLE-UHFFFAOYSA-N,CN(CCN(c1ccccn1)Cc1ccsc1Br)C.Cl,-2.940559139,4.2758,376.743
,C8055,GIDHETAVKZYKOZ-BLSZYJJPSA-N,OS(=O)(=O)O.CNC(CC1CCC(CC1)O)C,-1.313055342,2.3544,269.358
,C4304,GIDUQUXTSWWQMG-UHFFFAOYSA-N,C/C=C/CN1CC[C@@]23[C@H]([C@H]1Cc1c3cc(cc1)O)CCCC2.Br,-3.870328154,4.9227,378.346
,C7681,GIGGCFWOBHJNIP-UHFFFAOYSA-M,CCC1C2CCC(C2)CN1C,-1.607962524,2.0646,153.265
,C7456,GIIBAUDXEXFBHL-UHFFFAOYSA-N,CC[N+](CCOC(=O)C(c1ccccc1)(c1ccccc1)O)(CC)CC.[Br-],-1.770056592,0.3462,436.382
,C7509,GIIFOXPATIOXSA-FAELENHSSA-N,OCC(COc1cccc(c1)C)O,-1.731676935,0.727,182.216
,C7342,GIIFOXPATIOXSA-RGFKIIKPSA-N,COc1ccc2c(c1O)[C@]13CCC[C@H]([C@H]3[C@@H](C2)N(CC1)C)O,-1.850574685,1.9977,303.396
,C7341,GIIGAFADHXYOPM-UHFFFAOYSA-N,COc1ccc2c(c1O)[C@]13CCC[C@@H]([C@H]3[C@@H](C2)N(CC1)C)O,-1.850574685,1.9977,303.396
,C3263,GIJXKZJWITVLHI-YOFSQIOKSA-N,Nc1ccc(cc1)OCCCCCN1C(=O)c2c(C1=O)cccc2,-4.785632519,3.6332,324.374
,C4026,GILIYJDBJZWGBG-REOHCLBHSA-N,CN1[C@@H]2CC[C@H]1CC(C2)OC(c1ccccc1)c1ccccc1,-4.091556801,4.3557,307.429
,C1584,GITPCGSPKUQZTE-UHFFFAOYSA-N,C[C@@H](C(F)(F)F)O,0.30000001,0.9295,114.066
,C5629,GIVGVNLRHLKCMH-DAXSKMNVSA-N,CCCOc1cc(N)ccc1C(=O)OCCN(CC)CC.Cl,-2.956866534,3.9394,330.85