Name,Compound ID,InChIKey,SMILES,logS,logP,MW
,C933,XRCFXMGQEVUZFC-UHFFFAOYSA-N,N#Cc1ccccc1C#N,-2.3800001,1.42996,128.131
,C8223,XRCJOMAARACHTL-UHFFFAOYSA-N,OCC(COc1ccccc1OC)(O)C,-1.156575753,0.8173,212.242
,C4852,XRECTZIEBJDKEO-UHFFFAOYSA-N,COc1ccc(cc1)C1C(=O)c2c(C1=O)cccc2,-3.50007874,2.858,252.265
,C1908,XREKTVACBXQCSB-UHFFFAOYSA-N,CCCCCCCC(C(=O)OCC)CCCCCCC,-7.821600569,5.8867,284.477
,C1379,XREUEWVEMYWFFA-CSKJXFQVSA-N,Nc1nc(=O)[nH]cc1F,-0.97000003,0.0724,129.092
,C3855,XRHGWAGWAHHFLF-UHFFFAOYSA-N,OC(=O)c1cc(I)c(c(c1)I)O,-4.20215854,2.2996,389.914
,C3521,XRHGYUZYPHTUJZ-UHFFFAOYSA-N,N[C@H]1C[C@@H](O[C@H]([C@H]1O)C)O[C@H]1C[C@@](O)(Cc2c1c(O)c1c(c2O)C(=O)c2c(C1=O)c(O)ccc2)C(=O)C,-4.514916676,1.4262,513.493
,C537,XRKACABSJZHNBA-UHFFFAOYSA-L,CCOP(=S)(Oc1nn(c(n1)Cl)C(C)C)OCC,-3.6600001,3.8393,313.741
,C624,XRMVWAKMXZNZIL-UHFFFAOYSA-N,OC(=O)c1ccc(cc1)Cl,-3.3099999,2.0382,156.566
,C9452,XRNBLQCAFWFFPM-UHFFFAOYSA-N,CC[N+](CCOCCC[N+](CC)(CC)CC)(C)C.[Br-].[Br-],0.376467487,-3.6261,420.267
,C1367,XRNMUORBCMFEJN-UHFFFAOYSA-N,CCC(CO)(C)C,-1.04,1.4149,102.175
,C6022,XRPBPWMZJXTYTJ-UHFFFAOYSA-N,NC(=O)c1ccc(cc1)I,-2.701853935,2.0904,247.033
,C6369,XRSAGOMOWZOXDY-UHFFFAOYSA-M,CN1OCc2c(C1)ccc(c2)[N+](=O)[O-],-2.496536213,1.9329,194.187
,C2262,XRTJYEIMLZALBD-UHFFFAOYSA-N,Clc1ccccc1C[NH2+]C12CCC(CC1)(CC2)[NH2+]Cc1ccccc1Cl.[Cl-].[Cl-],-6.31855213,-2.3262,462.283
,C4890,XRVCFZPJAHWYTB-UHFFFAOYSA-N,CCCCC1(CC)C(=O)N=C(N(C1=O)CCC)[O-].[Na+],-3.465508626,1.5118,276.307
,C523,XRWZTKSYDDGGAQ-UHFFFAOYSA-N,Nc1ccc(cc1)c1nc2c(s1)cc(cc2)C,-3.6800001,4.4351,240.323
,C9228,XRXDAJYKGWNHTQ-UHFFFAOYSA-N,CCC(CO)(CO)CC,0.179788685,0.7774,132.201
,C2729,XRZMRABYCSOXIZ-UHFFFAOYSA-N,CN1CCC2=C(C1CCc1ccc(cc1)Cl)CCCC2,-5.46216878,4.7852,289.843
,C7851,XSCGXQMFQXDFCW-UHFFFAOYSA-N,N1CCN(CC1)c1ccc2c(n1)cccc2,-1.490865139,2.0382,213.278
,C6024,XSEUMFJMFFMCIU-UHFFFAOYSA-N,OCc1ccccc1OCc1ccccc1,-2.69950546,2.7579,214.26
,C196,XSGIUPVGODDVRD-MONHGIHASA-N,CN(CCCN1c2ccccc2Sc2c1cc(cc2)C(F)(F)F)C,-5.3000002,5.3248,352.417
,C9729,XSIAKDCMDYUKNA-UHFFFAOYSA-N,CCCC/N=C(/N=C(N)N)\N,0.676228301,1.4755,157.217
,C2159,XSIFPSYPOVKYCO-UHFFFAOYSA-N,OCCN1CCN(CC1)CC/C=C/1\c2ccccc2Sc2c1ccc(c2)I.Cl.Cl,-6.603086776,5.6673,565.338
,C4384,XSJVWZAETSBXKU-UHFFFAOYSA-N,CCCCCCOC(=O)Oc1ccccc1C(=O)O,-3.816833717,3.4805,266.29
,C578,XSOOSXRNMDUWEM-GNAFDRTKSA-N,CCCCOC(=O)c1ccccc1,-3.48,2.6435,178.228
,C1476,XSQUKJJJFZCRTK-UHFFFAOYSA-N,CCOC(C)C,-0.55000001,1.4313,88.1482
,C3157,XSSPZLNOIOIIGS-UHFFFAOYSA-M,O=C1CC[C@](C(=O)N1)(C1CCN(CC1)Cc1ccccc1)c1ccccc1.Cl,-4.916052424,4.3419,398.926
,C1640,XSTXAVWGXDQKEL-UHFFFAOYSA-N,NC(=O)N,0.95999998,0.4244,60.0553
,C7545,XSWHNYGMWWVAIE-UHFFFAOYSA-N,C[N+]1(CCCC1)CCN1CC2CCCC(C1)C2.[I-],-1.710830818,-0.7505,364.309
,C1081,XSZLHACSCSAKOF-UHFFFAOYSA-N,ClC=C(Cl)Cl,-1.96,2.5017,131.388
,C5423,XTBYBRINUMAOSK-UHFFFAOYSA-N,OC(c1ccccc1)(c1ccccc1)C1CCCCN1,-3.085088253,3.3934,267.365
,C7388,XTCBHFKSTRGVMZ-UHFFFAOYSA-N,NC1=NCC(O1)CN1CCN(CC1)c1ccccc1,-1.825146622,0.6609,260.335
,C3354,XTKDAFGWCDAMPY-UHFFFAOYSA-N,Brc1ccc(cc1)C(=O)OCCCN1CCCCC1C,-4.673876897,3.8083,340.255
,C3575,XTMMHYGQTNDKST-SNISIANXSA-N,c1ccc(cc1)[Te]c1ccccc1,-4.46408414,2.5928,281.808
,C4983,XTRDKALNCIHHNI-UHFFFAOYSA-N,Fc1ccc(cc1)C(=O)CCCN1CCN(CC1)c1ccccn1,-3.397811385,3.0087,327.396
,C3003,XTSOELQVDLSJFM-RVXRQPKJSA-N,O[C@H]([C@H](C(=O)O)O)C(=O)O.CCC(CCN1CC[C@@]23[C@H]([C@H]1Cc1c3cc(cc1)O)CCCC2)C,-5.107353659,2.7021,477.59
,C726,XTSOELQVDLSJFM-SQQLFYIASA-N,Cc1c(cccc1[N+](=O)[O-])[N+](=O)[O-],-3,2.8578,182.134
,C4977,XTSSXTWGEJTWBM-FQEVSTJZSA-N,CN[C@H]1CC[C@H](c2c1cccc2)c1ccccc1.Cl,-3.400013275,5.0657,273.8
,C4976,XTVOFWWZDFAMRO-UHFFFAOYSA-M,CN[C@@H]1CC[C@H](c2c1cccc2)c1ccccc1.Cl,-3.400013275,5.0657,273.8
,C2607,XTWSCSNDXKSPIX-UHFFFAOYSA-M,COc1ccc2c(cc1=O)[C@H](CCc1c2c(OC)c(c(c1)OC)OC)NC(=O)c1ccccc1,-5.651347665,4.5564,461.506
,C9528,XTWZHJXJIIUEJP-UHFFFAOYSA-N,C[n+]1ccc(cc1)c1cocc1.[I-],0.466762788,-1.2249,287.097
,C5648,XUCIJNAGGSZNQT-NEHBFDAQSA-N,CCCCN1C(=NC(=O)C(C1=O)(CC)CC)[O-].[Na+],-2.946017005,1.1217,262.281
,C9596,XUFQPHANEAPEMJ-UHFFFAOYSA-N,CC(=O)Nc1ccc(cc1)C(=O)O.OCCN(C)C,0.571358301,0.9565,268.309
,C1435,XUFXDODGXLVPNJ-UHFFFAOYSA-N,OC[C@@H]1O[C@H](OC[C@@H]2O[C@H](O[C@H](c3ccccc3)C#N)[C@H]([C@@H]([C@H]2O)O)O)[C@H]([C@@H]([C@H]1O)O)O,-0.76999998,-3.10802,457.428
,C1697,XUFXOAAUWZOOIT-UGEKTDRHSA-N,NC(=Nc1scc(n1)CSCCC(=NS(=O)(=O)N)N)N	,-2.65 ,3.114,337.445
,C7426,XUHJBXVYNBQQBD-TUWOXVOMSA-N,CCNC(=O)Nc1ccccc1,-1.799920117,2.2919,164.204
,C9233,XUIZFYDSDRUVPE-UHFFFAOYSA-N,OC[C@H]1O[C@H](O[C@@H]2[C@@H](CO)OC([C@@H]([C@H]2O)O)O)[C@@H]([C@H]([C@@H]1O[C@H]1O[C@H](C)[C@H]([C@@H]([C@H]1O)O)N[C@H]1C=C(CO)[C@H]([C@@H]([C@H]1O)O)O)O)O,0.190031117,-8.1736,645.605
,C7133,XUJNEKJLAYXESH-REOHCLBHSA-N,COC[C@@]12CN(C)C3[C@]4([C@@H]2[C@@H](OC)[C@@H]3[C@@]2([C@@H]3[C@H]4C[C@@]([C@@H]3OC(=O)c3ccccc3)([C@H]([C@@H]2O)OC)O)OC(=O)C)[C@H](C[C@H]1O)OC,-2.014482722,0.1959,631.711
,C8912,XULACPAEUUWKFX-UHFFFAOYSA-N,CC(=O)c1cccc(c1)[NH+](O)C.[Cl-],-0.355696444,-2.5714,201.65
,C9424,XULIXFLCVXWHRF-UHFFFAOYSA-N,N[C@H](C(=O)O)CS,0.359768699,0.0284,121.158
,C2470,XUNAJGRWRKIEPV-ISLYRVAYSA-N,Clc1cc(c2cc(Cl)cc(c2O)[N+](=O)[O-])c(c(c1)[N+](=O)[O-])O,-5.880778368,4.9344,345.092
,C7782,XUPSCTMGCXAJGL-AATRIKPKSA-N,CN1C(C)(C)CCCC1(C)C,-1.540627712,2.5972,155.28
,C2662,XUPZAARQDNSRJB-SJDTYFKWSA-N,Clc1ccc(cc1)CN(/N=N/c1ccc(cc1)C(=O)O)C,-5.557198476,4.1689,303.744
,C7221,XURCMZMFZXXQDJ-UKNJCJGYSA-N,COc1cc(/C=C/C(=O)N2CCCO2)cc(c1OC(=O)C)OC,-1.944657072,1.7441,321.325
,C3484,XURNBUIOYGQEST-UHFFFAOYSA-N,CN(CC/C=C\1/c2ccccc2SCc2c1cccc2)C.Cl,-4.548807044,5.4777,331.903
,C2198,XUWCEPTXFCXEEX-UHFFFAOYSA-N,CCCCCC(=O)O[C@@]1(CC[C@@H]2[C@]1(C)CC[C@H]1[C@H]2CCC2=CC(=O)CC[C@H]12)C(=O)C,-6.488247037,5.5795,414.578
,C2668,XUWHAWMETYGRKB-UHFFFAOYSA-N,O=C1NC(=O)C2(N1)c1ccccc1CCCc1c2cccc1,-5.546284263,2.9159,292.332
,C2874,XUWZZJXBIFVOSR-UHFFFAOYSA-N,CC(C(C(=O)OC(C(Cl)(Cl)Cl)C)Br)C,-5.258525542,3.7078,326.443
,C9529,XUYPXLNMDZIRQH-LURJTMIESA-N,O=C1CCCCN1,0.467077348,0.6153,99.1311
,C5044,XUYPXLNMDZIRQH-UHFFFAOYSA-N,CCCCOc1c(OC)cccc1C(=O)OCC[NH2+]C(C)C.[Cl-],-3.351384652,-0.9933,345.862
,C9243,XUZKWGHQFMAXTE-UHFFFAOYSA-N,CSCC[C@@H](C(=O)O)NC(=O)C,0.205548286,0.7197,191.248
,C8940,XVAIDCNLVLTVFM-UHFFFAOYSA-N,CSCCC(C(=O)O)NC(=O)C,-0.321595251,0.7197,191.248
,C8509,XVAOJFFCAQNGJF-UHFFFAOYSA-L,SC/C(=[NH+]\CCc1ccc(c(c1)OC)OC)/N.[Cl-],-0.888415518,-2.6818,290.809
,C1299,XVASOOUVMJAZNJ-MBNYWOFBSA-N,COc1ccc(cc1)NC(=O)C,-1.3,1.7266,165.189
,C6837,XVDVHWJHDXRAST-SOFGYWHQSA-N,CCCC[Hg]OC(=O)C[S-].[Na+],-2.183526436,1.2924,370.795
,C3508,XVDWCNBDFUXCCB-UHFFFAOYSA-N,CCCCCCCC(=O)N[C@@H]1C(=O)N2[C@@H]1SC([C@@H]2C(=O)O)(C)C,-4.532436194,2.3074,342.454
,C5572,XVJMMRCIYPAAMO-UHFFFAOYSA-N,CCCC1(C(=O)NC(=O)NC1=O)/C(=C/CC)/C,-2.996889108,2.1528,238.283
,C2769,XVQDYVLXIXMLOS-UHFFFAOYSA-N,CNCCCC1(CC(c2c1cccc2)(C)C)c1ccccc1.Cl,-5.41118813,5.8465,329.907
,C7440,XVTZQNZGUDNVOW-UHFFFAOYSA-N,OCCNc1ccccc1C(=O)N,-1.783161459,0.963,180.204
,C1722,XVVRVNIDUKODKO-UHFFFAOYSA-N,CCCCCCCCCCCCCCCCCOC(=O)c1ccc(c(c1)N(CCCl)CCCl)C,-13.45141192,9.3072,514.611
,C8325,XVXVYISMBXFBHS-UHFFFAOYSA-N,CN(C1CN(C(=O)C1)c1ccccc1)C,-1.064698278,1.4185,204.268
,C6365,XVYHWYZYTJJECW-WLHGVMLRSA-N,OC(=O)C=CC(=O)O.CNCC(C(=O)c1ccccc1)c1ccccc1,-2.497626772,2.9752,355.384
,C2222,XVZDPVJRQRTTDF-UHFFFAOYSA-N,O=C(C(c1ccccc1)c1ccccc1)OC1CC[NH+](CC1)CCc1ccccc1.[Cl-],-6.424634672,2.2249,435.986
,C5284,XWBDWHCCBGMXKG-UHFFFAOYSA-N,O=C(C(c1ccccc1)CN1CCC1)c1ccccc1.OC(=O)/C=C/C(=O)O,-3.174872402,3.0085,381.422
,C7209,XWBIZYHDVFHTID-UHFFFAOYSA-M,Nc1ccc(cc1)C(=O)Nc1ncccc1C.Cl.Cl,-1.952341301,4.4827,300.184
,C9934,XWIHRGFIPXWGEF-UHFFFAOYSA-N,CCN.Cl,1.08861332,1.4673,81.5446
,C9650,XWIYUCRMWCHYJR-UHFFFAOYSA-N,CCCC[N+](C)(C)C.[I-],0.614157877,-1.5033,243.129
,C4699,XWJVPBHZMKZXII-UHFFFAOYSA-N,CCCNCC(COc1ccccc1C(=O)CCc1ccccc1)O.Cl,-3.607505591,4.4343,377.905
,C7659,XWKFPIODWVPXLX-UHFFFAOYSA-N,c1cnc2c(c1)[nH]cc2,-1.61831102,1.5629,118.136
,C9128,XWKGHFQYDTZPCD-UHFFFAOYSA-M,S=C1NC(=CC(N1)(C)C)C,0.023672285,1.8041,156.249
,C1597,XWLWYHOJUYRRQO-UHFFFAOYSA-L,Cc1ccc(cn1)C,0.40000001,1.6984,107.153
,C4355,XWMSEZHMHBQVLE-UHFFFAOYSA-N,O=C(C(c1ccccc1)O)OC1CC2CCC(C1)[N+]2(C)Cc1ccc(cc1)Cl.[Br-],-3.840004042,1.2196,480.822
,C2999,XWMWUNNOHGBMRT-UHFFFAOYSA-M,C[N+]1(CCCCCCCCC[N+]2(C)CCOCC2)CCOCC1.[I-].[I-],-5.109085863,-3.4037,582.342
,C8770,XWNLXQLPBDJQAN-UHFFFAOYSA-L,COc1cc(cc(c1O)OC)C(=O)N,-0.5608856,1.2086,197.188
,C9052,XWNZVGDZWLLXSJ-UHFFFAOYSA-N,Cc1ccc(cc1)C(=O)Oc1cccc(c1)[N+](C)(C)C.[Br-],-0.117874335,0.4149,350.25
,C7704,XWOUHHGZZURCLD-UHFFFAOYSA-L,CCC(CO)(CO)CC.CCC(CO)(CO)CC.[Cl-].[Cl-].[Ca+2],-1.597209545,-4.4372,375.385
,C1965,XWOVYFGIWQEHHR-UHFFFAOYSA-K,OCC(CC(c1nc2c(s1)nc(s2)C(CC(CO)(C)C)(C)C)(C)C)(C)C,-7.37525415,5.1252,398.626
,C9315,XWPYRLPMMKHYFK-UHFFFAOYSA-M,C[N+](CCCCCc1ccc(cc1)[N+](C)(C)C)(C)C.[I-].[I-],0.28544729,-2.6897,518.258
,C8172,XWPYVVNCDABVOT-UHFFFAOYSA-N,OC(=O)C1=C/C(=C(\c2ccc(c(c2)C(=O)O)[O-])/c2ccc(c(c2)C(=O)[O-])[O-])/C=CC1=O.[Na+].[Na+].[Na+],-1.211556584,1.9877,488.287
,C9583,XWRZKLKALVJDDS-REOHCLBHSA-N,[O-]P(=O)(SCC(CN)O)O.[Na+].O.O.O.O,0.550997055,0.0132,281.198
,C9769,XWSLYQXUTWUIKM-UHFFFAOYSA-N,OCC(COP(=O)(O)O)[O-].[Na+],0.712075185,-1.1129,194.056
,C9614,XWSYYWABEPNTFA-UHFFFAOYSA-L,SC[C@@H](C(=O)O)N=C(N)N,0.588010203,0.0434,163.198
,C8021,XWTYSIMOBUGWOL-UHFFFAOYSA-N,COP(=S)(OC)OC,-1.334364752,1.8007,156.141
,C4898,XWUHTDIIQSYUDH-FPYGCLRLSA-N,C[N+]1(C)CCC(CC1)CC[N+]1(C)CCOCC1.[I-].[I-],-3.45762466,-4.7347,496.21
,C9101,XWVMYVGJUIEGPC-UHFFFAOYSA-L,OC(c1cc(O)cc(c1)O)CNC(C)(C)C,-0.024766417,1.9102,225.284
,C6270,XWVNWXNQELAUTL-UHFFFAOYSA-N,[O-][N+](=O)c1ccc(o1)/C=N/NC(=S)N,-2.553898456,1.9693,214.202
,C8220,XWVOEFLBOSSYGM-UHFFFAOYSA-N,CC[Hg]OC(=O)C[S-].[K+],-1.162213565,0.5122,358.85
,C4285,XWXMBIPBKQHNOU-UHFFFAOYSA-N,Fc1cccc(c1)C(=O)C(c1ccccc1)CN1CCCC1.Cl,-3.891069358,4.6279,333.828
,C8462,XWYBFXIUISNTQG-VKMGZQQJSA-N,COc1cc(cc(c1OC)OC)C(=O)N1CCOCC1,-0.931986201,1.1227,281.304
,C9073,XWZXRENCCHMZNF-UHFFFAOYSA-N,FCCNCCCl.Cl,-0.07925901,1.9772,162.033
,C4307,XXANNZJIZQTCBP-UHFFFAOYSA-N,OCC(=O)[C@H]1CC[C@@H]2[C@]1(C)CC(=O)[C@H]1[C@H]2CC[C@@H]2[C@]1(C)CC[C@H](C2)O,-3.866403255,2.7466,348.476
,C8650,XXBSNFDFXXRLKZ-UHFFFAOYSA-M,C=CCN1C(=O)OC(C1=O)C,-0.737594785,0.4776,155.151
,C7884,XXEPPPIWZFICOJ-UHFFFAOYSA-N,COc1c2CN(C)CCc2cc2c1OCO2,-1.466373261,1.3497,221.252
,C8897,XXFVRXJPEIBBEZ-UHFFFAOYSA-N,COc1cc(cc(c1C)C)[N+](C)(C)C.[I-],-0.376444472,-0.4873,321.198
,C6682,XXLCXPJFZSMOBW-UHFFFAOYSA-L,CCN(C(C(=O)c1ccccc1)C)CC,-2.287495084,2.5996,205.296
,C4008,XXLZPUYGHQWHRN-RPBOFIJWSA-N,CN(CCC(c1cccc2c1cccc2)(C(=O)N)C(C)C)C,-4.107486543,3.8709,298.423
,C9398,XXMNRAZBBDMFIH-UHFFFAOYSA-N,CC[N+](CCOCC[N+](C)(C)C)(C)C.[I-].[I-],0.338976204,-5.1865,458.162
,C2609,XXOYNJXVWVNOOJ-UHFFFAOYSA-N,CCC1=C(C[C@H]2NCCc3c2cc(OC)c(c3)OC)C[C@@H]2N(C1)CCc1c2cc(c(c1)OC)OC,-5.645775378,5.2743,478.623
,C6609,XXPANQJNYNUNES-UHFFFAOYSA-N,CCC1CCC([NH2+]1)c1c[nH]c2c1cccc2.[Cl-],-2.33857774,0.918,250.767
,C1201,XXPDBLUZJRXNNZ-UHFFFAOYSA-N,CN(C(=O)Nc1ccccc1)C,-1.6,1.8531,164.204
,C5674,XXPRYWVKIKJFRN-UHFFFAOYSA-N,CN1CC(c2ccccc2)c2c(C1)c(N)ccc2,-2.93080419,3.3652,238.328
,C2932,XXQMDKCWUYZXOF-UHFFFAOYSA-N,CN(C(CN1c2ccccc2Sc2c1cccc2)C)C.Cl,-5.186195009,5.1064,320.88
,C4464,XXRMYXBSBOVVBH-UHFFFAOYSA-N,CCC(=O)N1C2CCC1CN(C2)CCC1CCCC1,-3.754829834,2.5277,264.406
,C2023,XXSMGPRMXLTPCZ-UHFFFAOYSA-N,CCN(CCCN1c2ccccc2Sc2c1cc(Cl)cc2)CC.Cl,-7.092262095,6.5416,383.378
,C9550,XXUJCIFAKQDYHT-UHFFFAOYSA-N,CC(C[N+](C)(C)C)OC(=O)N.[Cl-],0.502130859,-2.1193,196.675
,C5513,XXUJMEYKYHETBZ-UHFFFAOYSA-N,OCCN(CCCC(Nc1ccnc2c1ccc(c2)Cl)C)CC,-3.032163611,3.856,335.872
,C4206,XXUMSZSOCZWEAS-UHFFFAOYSA-N,Cc1cc(OCCCCCCNCCSS(=O)(=O)O)nc2c1cccc2,-3.960981079,5.0797,398.54
,C5290,XXUXXCZCUGIGPP-WLRTZDKTSA-N,CCP(=O)(Oc1ccc(cc1)[N+](=O)[O-])OCC,-3.173082398,3.7463,259.196
,C7337,XXVROGAVTTXONC-UHFFFAOYSA-N,CC(C(c1ccccc1)(C(=O)OCCC[NH+](C)C)O)C.[Cl-],-1.856999874,-2.388,315.836
,C4180,XXYCNHJBPIDFMZ-UHFFFAOYSA-N,[O-][N+](=O)c1ccc(o1)/C=N/NC(=O)c1cc(cc(c1O)[N+](=O)[O-])[N+](=O)[O-],-3.979348631,3.4342,365.212
,C6041,XYGBKMMCQDZQOZ-UHFFFAOYSA-M,ClCCCNC(Cc1ccccc1)C,-2.690103788,3.227,211.731
,C8916,XYGSFNHCFFAJPO-UHFFFAOYSA-N,CCON=Cc1ccncc1,-0.353793347,1.452,150.178
,C9893,XYGXSCVUMIDZRR-UHFFFAOYSA-N,OCCCC(=O)[O-].[Na+],0.899329688,-1.4912,126.086
,C6806,XYHDHXBLSLSXSR-UHFFFAOYSA-N,CN(CCC(c1ccccc1Cl)(c1ccccc1)O)C.Cl,-2.20821378,4.3296,326.261
,C6852,XYKVWCZODOKFIK-UHFFFAOYSA-N,CCCCCC1(CC)C(=O)NC(=O)NC1=O,-2.175661546,1.9867,226.272
,C2079,XYLUMUDIJHWKSB-UHFFFAOYSA-N,Nc1ccc(cc1)C(c1ccccc1)(c1ccccc1)c1ccccc1,-6.872415295,6.2327,335.441
,C8941,XYPQGNNSAIEXIS-UHFFFAOYSA-N,[O-][N+](=O)OCCN([N+](=O)[O-])C,-0.317393097,0.3646,165.105
,C5048,XYVDBMJJKIAKIK-UHFFFAOYSA-N,CC[NH+](CCN1C(=O)C(C)Oc2c1cc(cc2)[N+](=O)[O-])CC.[Cl-],-3.34879527,-1.7744,343.806
,C8292,XYWDPYKBIRQXQS-UHFFFAOYSA-N,CNC(=O)Oc1cccc(c1)[N+](CC)(CC)C.[I-],-1.100474282,-0.2234,364.223
,C7599,XZEDEVRSUANQEM-UHFFFAOYSA-N,CCCCC(COC(=O)N)COC(=O)N,-1.664099101,2.384,218.25
,C990,XZFPDUXSUDETHM-UHFFFAOYSA-L,CC(SC(C)C)C,-2.24,2.5364,118.24
,C6010,XZGYNWBIAGZROB-UHFFFAOYSA-N,[O-][N+](=O)c1cc(ccc1O)C(F)(F)F,-2.710138125,2.8424,207.107
,C9358,XZIDTOHMJBOSOX-UHFFFAOYSA-N,CC[N+](CCSCC[N+](C)(C)C)(CC)C.[I-].[I-],0.311353301,-4.0798,488.254
,C6055,XZJJDJAXUSQABJ-UHFFFAOYSA-N,ClCCN(C(=O)NC1CCCC1)N=O,-2.682042698,2.2517,219.669
,C7881,XZLBXQZCBMFFQT-UHFFFAOYSA-N,Clc1ccc(c(c1Cl)C(=O)O)Cl,-1.466557607,3.345,225.457
,C1804,XZNUGFQTQHRASN-XQENGBIVSA-N,N(Cc1cccc2c1cccc2)CC1CCC(CC1)CNCc1cccc2c1cccc2.Cl.Cl,-9.085477305,9.0646,495.526
,C4324,XZNWXEXXXURADS-UHFFFAOYSA-N,CCOC(=O)c1c(C)ccc(c1OCC(CNC(C)C)O)C(C)C,-3.856124431,3.4237,337.454
,C9293,XZSZWIVHLAUZLZ-UHFFFAOYSA-N,CN[C@@H]1[C@H](O[C@@H]2[C@@H]([C@@H]1O)O[C@@H]([C@@H](C2)N)O[C@@H]1[C@@H](N)C[C@H]([C@@H]([C@H]1O)O)N)O[C@H]1O[C@H](CO)[C@H]([C@@H]([C@H]1O)O)N,0.267941734,-3.7572,539.577
,C3912,XZTJQQLJJCXOLP-UHFFFAOYSA-M,CCCN1CCC(C1)OC(=O)Nc1c(C)cccc1Cl,-4.167105225,3.6921,296.792
,C6588,XZTUSOXSLKTKJQ-CESUGQOBSA-N,OCC(COc1ccccc1Cl)(CO)CO,-2.350753578,0.6821,246.687
,C7552,XZTYGFHCIAKPGJ-UHFFFAOYSA-N,CCCCCCCCCCOS(=O)(=O)[O-].[Na+],-1.70539686,3.6847,260.326
,C3883,XZUULFZXNSIACY-UHFFFAOYSA-N,O[C@H]1CC[C@]2([C@@H](C1)CC[C@@H]1[C@@H]2CC[C@]2([C@]1(O)CC[C@@H]2C1=CC(=O)OC1)C)C,-4.185019722,3.6043,374.514
,C7491,XZWMZFQOHTWGQE-UHFFFAOYSA-N,CN(CCOC(=O)COc1ccc(cc1)Cl)C,-1.742752078,1.8236,257.713
,C5267,XZWYZXLIPXDOLR-UHFFFAOYSA-N,CN(CCOCCOC(=O)C1(CCCC1)c1ccccc1)C,-3.190428403,2.6198,305.412
,C8062,XZZXIYZZBJDEEP-UHFFFAOYSA-N,Cc1n[nH]c(=O)[nH]c1=O,-1.306265318,-1.2334,127.101
,C9891,YAEANQXMMPFYHR-UHFFFAOYSA-L,CN(C(=N)N=C(N)N)C,0.888848393,0.2565,129.164
,C2630,YAHRDLICUYEDAU-UHFFFAOYSA-N,CN(CCCN1c2ccccc2CCc2c1cccc2)C.Cl,-5.602708738,4.742,316.868
,C3718,YAIARBNHRVQQRT-SKBVVQJISA-N,Cc1ccc[n+](c1)CC(=O)c1ccc(cc1)c1ccc(cc1)C(=O)C[n+]1cccc(c1)C.[Br-].[Br-],-4.324264557,-1.6808,582.326
,C8517,YAIOVNRRAGKGDY-BORNJIKYSA-N,CCC(CC(N)C)C,-0.880256099,2.4701,115.217
,C2913,YAJCYOUHZABXFT-UHFFFAOYSA-N,Oc1ccc2c(c1)[C@]13CCCC[C@H]3[C@@H](C2)N(CC1)CCc1ccc(cc1)N(C)C,-5.207884639,4.6972,390.561
,C9667,YAMHOIZEONCUIC-UHFFFAOYSA-N,CC(OCn1ccn(/c/1=C/[NH+]=O)C)C.[Cl-],0.631348721,-3.9208,233.695
,C8082,YAMNETATHGQXBZ-UHFFFAOYSA-N,ONC(=O)c1ccc(cc1)C(=O)NO,-1.288293507,0.7064,196.16
,C5991,YAMYUNXLJMWLTK-UHFFFAOYSA-N,C(CN1CSCC1)COc1ccc2c(n1)cccc2.Cl.Cl,-2.721816868,4.5519,347.303
,C5356,YANZREKXCRAKRB-UHFFFAOYSA-N,NC(=O)OCC(c1ccccc1)(c1ccccc1)COC(=O)N,-3.130045109,3.5639,314.336
,C5768,YAPQBXQYLJRXSA-UHFFFAOYSA-N,OS(=O)(=O)SCCNCCCCCOc1ccc2c(n1)cccc2,-2.869797096,4.3812,370.487
,C4604,YAPSKXXWJVKWBA-UHFFFAOYSA-N,CCN(CCOC(=O)C(c1ccc(cc1)OC)(c1ccc(cc1)OC)O)CC.Cl,-3.663982727,3.6267,423.93
,C887,YAQKGZXXQNKEET-UHFFFAOYSA-N,Cn1cnc2c1c(=O)[nH]c(=O)n2C,-2.52,-1.0397,180.164
,C2376,YASYVMFAVPKPKE-VIFPVBQESA-N,C1CCC(CC1)NCC1CCC(=CC1)CNC1CCCCC1.CC(=O)O.CC(=O)O,-6.069298022,5.5211,424.617
,C4134,YAVUZDCXTCRATB-UHFFFAOYSA-N,Clc1ccc2c(c1)C1N(CCc3c1cccc3)CC(=O)N2C,-4.015255636,3.2668,312.793
,C1610,YAVYBQFUSWPIQK-UHFFFAOYSA-N,CO[P@@](=O)(NC(=O)C)SC,0.54000002,1.6309,183.166
,C2976,YAXWIYFUVISXRS-UHFFFAOYSA-N,O=C(c1ccc(c(c1)I)F)OCCCN1CCCCC1.Cl,-5.13557766,4.203,427.681
,C1403,YAZSBRQTAHVVGE-UHFFFAOYSA-N,Clc1cnc2c(n1)cncn2,-0.87,1.0732,166.568
,C6046,YBADLXQNJCMBKR-UHFFFAOYSA-N,CNCCOC(c1ccccc1C)c1ccccc1.Cl,-2.685517074,4.5133,291.816
,C8717,YBAZINRZQSAIAY-UHFFFAOYSA-N,Nc1ccccc1S(=O)(=O)N,-0.644973584,2.2785,172.205
,C7554,YBBLVLTVTVSKRW-UHFFFAOYSA-N,OC(=O)Cc1ccc(cc1)[N+](=O)[O-],-1.704876598,1.7451,181.145
,C8024,YBCPYHQFUMNOJG-UHFFFAOYSA-N,N#Cc1ccc(cc1)N,-1.331162879,1.72168,118.136
,C5919,YBIRDHJXPIORJB-UHFFFAOYSA-N,N#CC(c1cc(cc(c1)C(C#N)(C)C)Cn1ncnc1)(C)C,-2.768451603,2.92876,293.366
,C3079,YBKOBYPTHJKDFK-BUHFOSPRSA-N,COc1cc2c(cc1OC)CCN(C2CCc1ccc(cc1)Cl)C,-5.011795015,4.4569,345.863
,C6701,YBLZYROLKJTYHF-UHFFFAOYSA-N,Nc1ncc(c(n1)N)Cc1ccc2c(c1)OCO2,-2.271566097,2.1229,244.249
,C5777,YBMDPYAEZDJWNY-UHFFFAOYSA-N,CCOC(=O)C(C(=O)C)/N=N/c1ccccc1,-2.865898186,2.291,234.251
,C5968,YBQZXXMEJHZYMB-UHFFFAOYSA-N,CC(C(c1ccccc1)(C(=O)N)CCN(C)C)C,-2.739000935,2.7177,248.364
,C5548,YBRQEOLOGGLDGM-UHFFFAOYSA-M,FC1=C(F)C(C(C1(F)F)(F)F)(F)F,-3.014668051,3.0565,212.041
,C742,YBRVSVVVWCFQMG-UHFFFAOYSA-N,c1ccc(cc1)NNc1ccccc1,-2.9200001,3.2716,184.237
,C8317,YBTSMQLFDICCCT-UHFFFAOYSA-N,CCCCCCCCCCCC[N+](CCO)(CCO)C.[Cl-],-1.080720355,0.3425,323.942
,C970,YBTVSGCNBZPRBD-UHFFFAOYSA-N,Nc1ccc(cc1)Cc1ccc(cc1)N,-2.3,3.6042,198.264
,C4209,YBVNFKZSMZGRAD-UHFFFAOYSA-N,CN1C2CCC1CN(C2)CCOC(=O)C1(CCCC1)c1ccccc1,-3.957147219,2.6958,342.475
,C7137,YBXQUVYQOUFMOM-UHFFFAOYSA-N,CC(=O)Nc1ccc(c(c1)O)C(=O)O,-2.008253185,1.1218,195.172
,C3564,YBZJPJLESWJLTK-UHFFFAOYSA-N,NC(=N)c1ccc(cc1)OCCCCCOc1ccc(cc1)C(=N)N.OCCS(=O)(=O)O.OCCS(=O)(=O)O,-4.471789558,4.3775,592.683
,C4345,YCAXNWFCHTZUMD-UHFFFAOYSA-N,O=C1OC(CN(C1=O)C1CCCCC1)c1ccccc1,-3.846740878,2.3837,273.327
,C5334,YCBIFQTZAQVLTQ-UHFFFAOYSA-N,CCC(=O)N1C2CCC1CN(C2)CCc1ccccc1,-3.142938277,2.1901,272.385
,C9167,YCDHOJVBJDPREI-UHFFFAOYSA-N,CCC(OC(=O)c1ccccc1)(CN(C)C)C.Cl,0.088218749,3.3757,271.783
,C7581,YCDXXCPZKJPBTE-UHFFFAOYSA-N,COc1ccc2c(c1)nc(o2)N,-1.679983805,1.9998,164.161
,C4943,YCFUZOCNZLMFMG-UHFFFAOYSA-N,S=C1NC(=O)C2(C(=O)N1)CCC[Si](C2)(C)C,-3.425283248,1.6635,256.397
,C8424,YCIHPQHVWDULOY-FMZCEJRJSA-N,FCCSC#N,-0.957268675,1.17018,105.134
,C5442,YCIMNLLNPGFGHC-UHFFFAOYSA-N,COc1ccccc1CCCCCNCCCSS(=O)(=O)O,-3.072592494,4.3954,347.493
,C8954,YCIQUDDZPRNRMY-UHFFFAOYSA-N,CN([C@@H]1C(=O)C(=C([C@@]2([C@H]1C[C@H]1C(=C(O)c3c([C@@]1(C)O)cccc3O)C2=O)O)O)C(=O)N)C.Cl,-0.285853633,1.1313,480.895
,C1618,YCISZOVUHXIOFY-HKXOFBAYSA-N,Oc1ccccc1O,0.62,1.0978,110.111
,C8774,YCMLQMDWSXFTIF-UHFFFAOYSA-N,[O-][n+]1onc(c1C(=O)N)C,-0.553260144,0.2107,143.101
,C2698,YCOBARWTFCFMKM-UHFFFAOYSA-N,CC(=O)O[C@@]1(CC[C@@H]2[C@]1(C)C[C@H](O)[C@]1([C@H]2C[C@H](C2=CC(=O)C(=C[C@]12C)Br)F)F)C(=O)COC(=O)C,-5.506425851,3.4619,559.394
,C1062,YCOXTKKNXUZSKD-UHFFFAOYSA-N,Cc1ccccc1S(=O)(=O)N,-2.02,2.4235,171.217
,C3937,YCOZIPAWZNQLMR-UHFFFAOYSA-N,Ic1ccc(nc1)SCCCCN1CSCC1.Cl,-4.148598497,4.3047,416.772
,C1267,YCSBALJAGZKWFF-UHFFFAOYSA-N,Oc1ccc(c(c1)C)C,-1.41,2.009,122.164
,C1787,YCTYZKUHJDXBEL-UHFFFAOYSA-M,CCCCCCCCCCCCCCC,-9.446383877,6.0975,212.415
,C221,YCUIRUPTFLLVAU-UHFFFAOYSA-N,Nc1ccc2c(c1)cc1c(c2)cccc1,-5.1700001,4.1564,193.244
,C3579,YCWSUKQGVSGXJO-NTUHNPAUSA-N,ClCCN(c1cc(ccc1C)C(=O)NC(C(=O)[O-])C)CCCl.[Na+],-4.460072884,1.5381,369.219
,C3580,YCXARMXCESBEDS-UHFFFAOYSA-N,CCCN1CCCC(C1)OC(=O)Nc1c(C)cccc1C,-4.458685722,3.7372,290.401
,C4623,YCYHVZWPNDQZAM-UHFFFAOYSA-N,Oc1ccc(cc1)C(=O)N/N=C/c1ccc(o1)[N+](=O)[O-],-3.655633575,2.5714,275.217
,C6096,YCYZCHCSBKTMDT-UHFFFAOYSA-N,CN(C(CN1c2ccccc2Sc2c1cccc2)C)C.Clc1[nH]c2c(n1)n(C)c(=O)n(c2=O)C,-2.660700157,3.9181,499.028
,C3047,YDBOSOSNSKVUHP-UHFFFAOYSA-N,O=C(c1ccc(c(c1)Cl)Cl)Cc1ccccc1C(=O)O,-5.04924893,4.117,309.144
,C8986,YDFZDHDSQUITOX-UHFFFAOYSA-N,OC(CN1CCOCC1)COc1cccc(c1)C(=O)C,-0.244729786,0.899,279.332
,C3843,YDJXNYNKKXZBMP-UHFFFAOYSA-N,CCCCNC(=O)OCC(COC(=O)N)(CCCC)C,-4.216939136,3.8957,288.383
,C5903,YDLQKLWVKKFPII-UHFFFAOYSA-N,CCCc1ccccc1OCC(CO)O,-2.775008785,1.3711,210.27