Name,Compound ID,InChIKey,SMILES,logS,logP,MW
,C1950,ZEAMUSTYAYFLDF-UHFFFAOYSA-N,CC(=O)O[C@@]12CO[C@@H]1C[C@@H]([C@@]1([C@@H]2[C@H](OC(=O)c2ccccc2)[C@]2(O)C[C@H](OC(=O)[C@@H]([C@H](c3ccccc3)NC(=O)OC(C)(C)C)O)C(=C(C2(C)C)[C@H](C1=O)O)C)C)O,-7.509412229,3.6505,807.879
,C6832,ZEBBLOXDLGIMEG-UHFFFAOYSA-N,OC(c1ccccc1)CNc1ccccn1,-2.186071918,2.3001,214.263
,C4581,ZEDGXSBAZFPSSM-UHFFFAOYSA-M,CCNC(=O)OCC(COC(=O)NCC)(CC)CC,-3.674894368,3.0668,274.357
,C6219,ZEHBWBDRLQCJBQ-UHFFFAOYSA-N,CCc1c(C)c[nH]c1C,-2.585185855,2.1939,123.196
,C9521,ZEHGKSPCAMLJDC-UHFFFAOYSA-M,O=C(c1ccccc1)Oc1ccc(cc1)[N+](C)(C)C.[Br-],0.446030423,0.1065,336.224
,C5878,ZEHYJZXQEQOSON-AATRIKPKSA-N,COc1cc(Cc2cnc(nc2N)N)cc(c1C(O)(C)C)OC,-2.794265907,2.6388,318.371
,C9687,ZEIYOHOWHPNINO-CAJRCRMVSA-N,CC(=O)OCC[N+](C)(C)C.[Br-],0.645672547,-2.7403,226.111
,C8474,ZEKLFUWSVQYTOO-UHFFFAOYSA-N,CCC(C#C)(/C=C/Cl)O,-0.923625055,1.5132,144.599
,C6125,ZEKZLJVOYLTDKK-UHFFFAOYSA-N,CC(C(=O)N/N=C/c1ccc(o1)[N+](=O)[O-])N1CCN(CC1)C.O.O,-2.64896529,0.9351,345.352
,C3694,ZEMGGZBWXRYJHK-UHFFFAOYSA-N,CN(CCCC1(O)c2ccccc2OCc2c1cccc2)C,-4.352764127,3.1567,297.391
,C8278,ZEOBTWIUYHOVNR-UHFFFAOYSA-N,CCn1cc(C(=O)O)c(=O)c2c1c(F)c(N1CCNC(C1)C)c(c2)F,-1.110697261,2.1897,351.348
,C984,ZEOMRHKTIYBETG-UHFFFAOYSA-N,O=c1cc[nH]c(=S)[nH]1,-2.26,0.4325,128.152
,C6845,ZERULLAPCVRMCO-UHFFFAOYSA-N,ClCCC1NC(=O)c2c(O1)ccc(c2)[NH3+].[Cl-],-2.179601328,-2.03,263.12
,C7978,ZESRJSPZRDMNHY-YFWFAHHUSA-N,c1ccc(cc1)c1nnco1,-1.386716986,1.7366,146.146
,C862,ZEVBVMDQMBCLIB-UHFFFAOYSA-N,CCCSCCC,-2.5799999,2.5396,118.24
,C508,ZEWQUBUPAILYHI-UHFFFAOYSA-N,OCC(=O)[C@H]1CC[C@@H]2[C@]1(C)CC[C@H]1[C@H]2CCC2=CC(=O)CC[C@]12C,-3.75,3.6959,330.461
,C4527,ZEYHEAKUIGZSGI-UHFFFAOYSA-N,SCCNCCCCCOc1ccc(cn1)Br.Cl.Cl,-3.704741159,4.9075,392.183
,C331,ZEYOIOAKZLALAP-UHFFFAOYSA-M,CN1CCN(CC1)CCCN1c2ccccc2Sc2c1cc(cc2)C(F)(F)F,-4.52,4.8864,407.496
,C6425,ZFDPAZDODACYOG-UHFFFAOYSA-M,COc1ccc(cc1)C(=O)O,-2.457993233,1.3934,152.147
,C9100,ZFEBPJQSSNUJGT-UHFFFAOYSA-N,CC(=O)Nc1c(I)c(NC(=O)C)c(c(c1I)C(=O)[O-])I.[Na+],-0.025236216,1.9267,635.895
,C6666,ZFFLXJVVPHACEG-UHFFFAOYSA-N,Cc1c(NCS(=O)(=O)[O-])c(=O)n(n1C)c1ccccc1.[Na+],-2.300093897,1.5528,319.312
,C4728,ZFFMLCVRJBZUDZ-UHFFFAOYSA-N,O=C(Cc1ccccc1)NC1CCCCC1,-3.588120848,3.0689,217.307
,C4381,ZFFZCBQVQKRBHW-QREUMGABSA-N,FC1=C(F)C(F)(F)C(C(C1(F)F)(F)F)(F)F,-3.818610208,3.6918,262.048
,C538,ZFHGXWPMULPQSE-OVGMLNDJSA-N,CC(C(C)C)C,-3.6500001,2.2984,86.1754
,C1860,ZFHWDLYDBITDJK-UHFFFAOYSA-M,CCCCCCCOc1ccc(c2c1cccc2)C(=N)[NH+](C(C)C)C(C)C.[Cl-],-8.287333411,2.3198,405.016
,C66,ZFIBLEGGEPZAOM-UHFFFAOYSA-N,O=C([C@@H]1[C@H](C1(C)C)/C=C(/C(F)(F)F)\Cl)OCc1c(F)c(F)c(c(c1F)F)C,-7.3200002,5.5518,418.734
,C8622,ZFJBSYYIOPSWAE-UHFFFAOYSA-N,Cc1cccc(c1OCC[N+](C)(C)C)C.[Br-],-0.772208714,-0.6076,288.224
,C7070,ZFKJIMJKFOYFAL-UHFFFAOYSA-N,[O-][N+](=O)c1ccc(s1)c1scc(n1)CN1CCOCC1,-2.05237325,3.0731,311.38
,C6153,ZFLIKDUSUDBGCD-UHFFFAOYSA-N,CCN(C(=O)Nc1ccccc1)CC,-2.623977233,2.6333,192.258
,C7956,ZFMITUMMTDLWHR-UHFFFAOYSA-N,COCCCNCC1COc2c(O1)cccc2.Cl,-1.412059352,2.6454,273.756
,C1507,ZFMSMUAANRJZFM-UHFFFAOYSA-N,O=C1NC(=O)C(=O)N1,-0.40000001,-0.99,114.06
,C1070,ZFOZGKFRTQWEQW-UHFFFAOYSA-N,Nc1cc(nc([n+]1[O-])N)N1CCCCC1,-1.99,1.8922,209.248
,C743,ZFPGARUNNKGOBB-UHFFFAOYSA-N,COc1ccc(cc1)CC=C,-2.9200001,2.4237,148.202
,C3988,ZFRBZRBCVWXTHC-UHFFFAOYSA-N,CCCCCCSCCCCCN1CCSC1.Cl,-4.115716338,5.2164,311.978
,C9120,ZFRKQXVRDFCRJG-UHFFFAOYSA-N,CCN1CCCC1=O,0.006248949,0.5666,113.158
,C9682,ZFSPFXJSEHCTTR-UHFFFAOYSA-N,NCCCCNCCSP(=O)(O)O,0.639854279,1.232,228.25
,C914,ZFUFAMMRSGTUQO-UHFFFAOYSA-N,Cc1c[nH]c2c1cccc2,-2.4200001,2.4763,131.174
,C5144,ZFULPIWVZQAEGU-RMZRELHQSA-N,OC(c1ccccc1)(C1CCCCC1)CCN1CCCC1.Cl,-3.282530947,4.6803,323.901
,C8971,ZFVLHMJCLWOOOY-UHFFFAOYSA-N,CCOC(c1ccccc1)(c1ccccc1)C(=O)OCCN(C)C.Cl,-0.259930565,3.8735,363.878
,C3770,ZFXYFBGIUFBOJW-UHFFFAOYSA-N,COc1ccc(cc1)N1CCN(CC1)CCC(/C=C/c1cc(OC)c(c(c1)OC)OC)O.Cl.Cl,-4.272872369,4.9143,515.47
,C6890,ZGEGCLOFRBLKSE-UHFFFAOYSA-N,CCC1(N2CCCCC2)C(=O)NC(=O)NC1=O,-2.156180836,0.5826,239.271
,C1276,ZGENSUYRNWPOET-UHFFFAOYSA-N,Cn1c(=O)n(C)c2c(c1=O)[nH]cn2,-1.39,-1.0397,180.164
,C512,ZGFASEKBKWVCGP-UHFFFAOYSA-N,CCCCCC=C,-3.73,2.7527,98.1861
,C7713,ZGGPNDKKJIWQJU-WDZFZDKYSA-N,C=CCOCC(Cn1ccnc1[N+](=O)[O-])O,-1.589736348,0.878,227.217
,C7833,ZGHQUYZPMWMLBM-UHFFFAOYSA-N,COC1(C)CC(c2ccccc2)c2c(O1)c1ccccc1oc2=O,-1.508341134,4.07,322.355
,C5094,ZGJOXLCSIYUFJN-UHFFFAOYSA-N,O=C(c1ccncc1)N/N=C(\C(=O)O)/C,-3.316366694,0.6628,207.186
,C113,ZGKJESGFAPAQKB-UHFFFAOYSA-N,Clc1ccc(cc1Cl)c1ccccc1,-6.3899999,4.6604,223.098
,C6102,ZGKNMKBZOSTFCB-UHFFFAOYSA-N,CCC(=O)N1C2CCC1CN(C2)CCNc1ccccc1,-2.659156807,2.1325,287.4
,C7032,ZGLVYSGVOOIUBG-UHFFFAOYSA-N,CC(C(CN(C)C)C)OC(=O)c1ccc(cc1)N.Cl,-2.066644025,3.395,286.798
,C9576,ZGNRRVAPHPANFI-UHFFFAOYSA-N,O=c1cc(cc(c(c1)O)O)C(=O)O,0.543073244,0.1562,182.13
,C5914,ZGTMUACCHSMWAC-UHFFFAOYSA-L,Clc1ccc(c(c1)Cl)CN(S(=O)(=O)N)C,-2.771966868,3.4098,269.148
,C8715,ZGUGWUXLJSTTMA-UHFFFAOYSA-N,OCCN(c1nc2c(n1C)c(=O)n(c(=O)n2C)C)C,-0.648829836,-1.6008,267.284
,C9534,ZGVSETXHNHBTRK-UDJLNJFBSA-N,[O-]C(=O)CN(CC(=O)O)CCN(CC(=O)O)CC(=O)[O-].[Na+].[Na+],0.473391944,-4.7406,336.206
,C378,ZGWNXHRVUJVMCP-UHFFFAOYSA-N,CN(CCCN1c2ccccc2Sc2c1cccc2)C,-4.3000002,4.306,284.419
,C2518,ZGWNXHRVUJVMCP-ZCFIWIBFSA-N,OC[C@H]1O[C@@H](O[C@H]2CC[C@]3(C(=CC[C@@H]4[C@@H]3CC[C@]3([C@H]4C[C@H]4[C@@H]3[C@H](C)[C@@H]3N4C[C@H](CC3)C)C)C2)C)[C@@H]([C@H]([C@H]1O)O[C@@H]1O[C@H](CO)[C@H]([C@@H]([C@H]1O)O)O)O[C@@H]1O[C@@H](C)[C@@H]([C@H]([C@H]1O)O)O,-5.798990972,0.0931,868.059
,C6654,ZHDORMMHAKXTPT-UHFFFAOYSA-N,OC(=O)C(Oc1ccccc1Cl)C,-2.310700889,2.1919,200.619
,C999,ZHFKPNWWDXTOHY-UHFFFAOYSA-L,OC(=O)[C@H](Oc1ccccc1Cl)C,-2.22,2.1919,200.619
,C982,ZHFUHZPSVMXPGL-GGWOSOGESA-N,O=C(c1ccccc1)NC(=O)c1ccccc1,-2.27,2.6477,225.243
,C9145,ZHLAWCRBKNNTNO-UHFFFAOYSA-N,[O-]C(=O)C(Cc1cnc[nH]1)N.[O-]C(=O)C(Cc1cnc[nH]1)N.[Co+2],0.0572747,-2.5406,367.226
,C7896,ZHMOADYMMOAGSH-UHFFFAOYSA-N,C/C=C/N1CCN(C1=O)/C=C/C,-1.456517597,1.667,166.22
,C4736,ZHPJNOBWVPAADW-UHFFFAOYSA-N,CN(CCNc1nc(c(o1)c1ccccc1)c1ccccc1)C,-3.582984079,4.0551,307.39
,C4389,ZHPKYOHYUWTINN-UHFFFAOYSA-N,CCOC(=O)N1C(OC)C=Cc2c1cccc2,-3.813970277,2.7138,233.263
,C6517,ZHRVNCCPAKIGRH-UHFFFAOYSA-N,Cc1cc(OCCCNCCSS(=O)(=O)O)nc2c1cccc2,-2.396668661,3.9094,356.46
,C5827,ZHRWFZMWXXRCDX-UHFFFAOYSA-L,CCC1(CCC(=O)NC1=O)c1ccc(cc1)[N+](=O)[O-],-2.832153049,2.5312,262.261
,C4596,ZHVLGOLHHYJSBZ-UHFFFAOYSA-N,CCN(CCNC(c1ccccc1)C(=O)OCCC(C)C)CC.Cl.Cl,-3.668999064,5.2433,393.391
,C9472,ZIBOAPBPXIPVLG-UHFFFAOYSA-N,C[N+](CCC[N+]1(C)CCc2c(C1)cccc2)(C)C.[Br-].[Br-],0.389103615,-3.7476,408.215
,C9066,ZIEWAMOXCOLNSJ-UHFFFAOYSA-N,OP(=O)(O)O.CC(Cc1ccccc1)N,-0.086702609,1.348,233.201
,C5929,ZIFJVJZWVSPZLE-UHFFFAOYSA-N,OCC(COc1ccc(cc1Cl)Cl)O,-2.764227428,1.7254,237.08
,C236,ZIGSKTZSJNCADJ-UHFFFAOYSA-N,O=C(C(Cl)Cl)NC1=C(Cl)C(=O)c2c(C1=O)cccc2,-5.0300002,2.8268,318.54
,C8937,ZIIJJOPLRSCQNX-UHFFFAOYSA-N,O=[NH+]C=c1ccn(cc1)COCn1ccc(=C[NH+]=O)cc1.[Cl-].[Cl-],-0.32311127,-8.3384,359.208
,C8437,ZIIRLGTXQOPAQY-LIXABZRUSA-N,Nc1ccc(cc1)C(=O)Nc1n[nH]nn1,-0.948312993,0.6884,204.189
,C3349,ZILPIBYANAFGMS-UHFFFAOYSA-N,CCN(CCN1C(=O)CN=C(c2c1ccc(c2)Cl)c1ccccc1F)CC.Cl.Cl,-4.682146028,5.1095,460.8
,C2294,ZIMGGGWCDYVHOY-PKNBQFBNSA-N,COc1ccc(cc1)CCN1CC[C@@]23[C@H]([C@H]1Cc1c3cc(cc1)OC)CCCC2.Cl,-6.230056419,5.7448,428.007
,C2800,ZIMVVGOAOKKAAB-PFEQFJNWSA-N,CCC(N(C(CC)C)CC(c1cccn1Cc1ccccc1Cl)O)C,-5.350858699,5.1222,362.937
,C7171,ZIQFOGAGKMHTRM-UHFFFAOYSA-N,Nc1cc(nc(=N)n1O)N1CCCCC1,-1.978249033,0.9183,209.248
,C4674,ZIROSOHFLOYBBU-UHFFFAOYSA-N,CC[NH+]1CCc2c3[C@H]1Cc1ccc(c(c1c3ccc2)O)O.[Cl-],-3.621929868,0.3961,317.81
,C2853,ZISSAWUMDACLOM-UHFFFAOYSA-N,CCS(=O)(=O)c1ccc2c(c1)n(CCN(C)C)c(=O)c1c(n2C)cccc1,-5.285073397,3.4914,387.496
,C3916,ZIXNZOBDFKSQTC-UHFFFAOYSA-N,Clc1ccc2c(c1)nccc2Nc1ccc(c(c1)CN1CCCC1)O.Cl.Cl,-4.164806951,6.5481,426.767
,C367,ZJDIMSMQXMWMCF-UHFFFAOYSA-N,CC(C(C)(C)C)C,-4.3600001,2.6885,100.202
,C2520,ZJJFOTCYYMAOMX-UHFFFAOYSA-M,O=C1Nc2ccc(cc2C2(N(C1)CCO2)c1ccccc1Cl)Cl,-5.796142506,3.5547,349.211
,C9868,ZJJHSYPKCVNRKD-UHFFFAOYSA-N,CN(CCc1[nH]cnc1)C,0.8359029,0.5138,139.198
,C8889,ZJJXGWJIGJFDTL-UHFFFAOYSA-N,CC(=O)Nc1cccc(c1)[As](=O)(O)[O-].[Na+],-0.388122849,-0.2828,281.073
,C3234,ZJMWRROPUADPEA-SECBINFHSA-N,C(CCSc1ccc2c(n1)cccc2)CCCN1CSCC1.Cl.Cl,-4.831225409,6.4355,405.448
,C1671,ZJOVXIBMMPYJIH-UHFFFAOYSA-N,Cc1ncc(nc1)C(=O)NCCc1ccc(cc1)S(=O)(=O)NC(=O)NC1CCCCC1	,-5.49 ,4.3316,445.535
,C476,ZJQHPWUVQPJPQT-UHFFFAOYSA-N,CC[C@H](c1ccccc1)C,-3.8900001,3.2001,134.218
,C8961,ZJRHNNNACBPWEB-UHFFFAOYSA-N,OCCN(C(=O)c1cc(OC)c(c(c1)OC)OC)CCO,-0.272020107,0.1392,299.32
,C9753,ZJVKLBBPLUXEAC-UHFFFAOYSA-N,NCc1cc(=O)[nH]o1,0.696358778,0.1269,114.103
,C2722,ZJYIVGNBYBGBFS-UHFFFAOYSA-N,CN(CCOCCOC(=O)N1c2ccccc2Sc2c1cccc2)C.Cl,-5.475928599,4.8711,394.916
,C5790,ZKALVNREMFLWAN-UHFFFAOYSA-N,O=C(C(c1ccccc1)(c1ccccc1)O)OCCN1CCCCC1.Cl,-2.857393747,3.6915,375.889
,C2322,ZKHQWZAMYRWXGA-KQYNXXCUSA-N,CCOC(=O)N1CCN(CC1)c1nc(c(o1)c1ccccc1)c1ccccc1,-6.170312346,4.29,377.436
,C6719,ZKLPARSLTMPFCP-UHFFFAOYSA-N,CC(CC(=NO)C)C,-2.264787658,1.8826,115.174
,C9335,ZKMVVYWUWBYAMV-UHFFFAOYSA-N,O[C@@H]1[C@@H](COP(=O)(OP(=O)(OP(=O)(O)O)O)O)O[C@H]([C@@H]1O)n1cnc2c1ncnc2N,0.294837024,-1.0478,507.181
,C8642,ZKNSZZXBPSICFK-UHFFFAOYSA-N,OC(=O)COCCN1CCN(CC1)C(c1ccc(cc1)Cl)c1ccccc1,-0.747407006,3.024,388.888
,C7855,ZKNWCLWQEQMFBT-UHFFFAOYSA-N,O=C1C2C3CCC(C2C(=O)N1c1ccc(cc1)Cl)O3,-1.488375613,2.0718,277.703
,C3287,ZKNXZJZQQIQXOD-UHFFFAOYSA-N,OC(=O)C(Oc1ccc(cc1)Cl)Oc1ccc(cc1)Cl,-4.751431695,3.8619,313.133
,C8959,ZKUDBRCEOBOWLF-UHFFFAOYSA-N,Nc1ccc(cc1)C(=O)Oc1cccc(c1)[N+](C)(C)C.[Br-],-0.278437174,0.2699,351.238
,C4982,ZKURGBYDCVNWKH-UHFFFAOYSA-N,OC(C1CC1c1ccncc1)(c1ccccc1)c1ccccc1.Cl,-3.398386273,4.9232,337.843
,C3398,ZKVDZTJLEAYWEW-UHFFFAOYSA-N,Cc1onc(c1)C(=O)NCCc1ccc(cc1)S(=O)(=O)NC(=O)NN1CCCCCC1,-4.631565517,3.9258,449.524
,C2077,ZKXDXTSUMUNWII-AWFSDRIXSA-N,O=C(N1c2ccc(cc2Sc2c1ccc(c2)N(C)C)N(C)C)c1ccccc1,-6.876196657,5.3267,389.513
,C4986,ZLAMOIIYVOQQBW-NSCUHMNNSA-N,CCC(C(=O)Nc1c(C)cccc1C)N(CC)CC.Cl,-3.396279295,4.2373,298.851
,C6553,ZLAQATDNGLKIEV-UHFFFAOYSA-N,CC(C[NH2+]CC(=O)N/N=C/c1ccc(o1)[N+](=O)[O-])C.[O-]C(=O)C,-2.37017593,-0.4724,328.321
,C2901,ZLAUKQRQFQGZMX-UHFFFAOYSA-N,C/C=C/CCC1CCCCN1CCCOC(=O)c1ccccc1,-5.227098562,4.3822,315.45
,C906,ZLEOLTREQNOWMM-UHFFFAOYSA-N,Sc1ncc(c(n1)O)C,-2.45,0.7793,142.179
,C8557,ZLHXGWFOXJVXPN-DHKWPOFJSA-N,[O-][N+](=O)c1nc(cn1CCO)C,-0.837192807,0.6152,171.154
,C6384,ZLHXMPGUFBZWDX-UHFFFAOYSA-N,NC(=O)C1(OC1Cl)c1ccccc1Cl,-2.489382447,2.316,232.063
,C1748,ZLMQPGUWYWFPEG-UHFFFAOYSA-N,CCCCCCCCCCOc1ccc(c2c1cccc2)C(=N)[NH+](CCCC)CCCC.[Cl-],-11.01502535,4.2735,475.149
,C6188,ZLNGFYDJXZZFJP-UHFFFAOYSA-N,CN1CCN(CC1)CCC(=O)NN=Cc1ccc(o1)[N+](=O)[O-],-2.601114709,1.0653,309.321
,C4893,ZLOMYDCFJHNHGM-UHFFFAOYSA-N,CCCCOc1cc(N)ccc1C(=O)OCCN(CC)CC,-3.464659681,3.5275,308.416
,C8930,ZLOXYEZYWCTXHU-UHFFFAOYSA-N,N1CCOC(C1)c1ccccc1,-0.332188417,1.6763,163.216
,C5485,ZLQVOBZJNPIICS-UHFFFAOYSA-N,COc1ccc(cc1)C(c1ccccc1)OCC[NH+](C)C.[Cl-],-3.048254279,-1.0503,321.842
,C3304,ZLVFYUORUHNMBO-UHFFFAOYSA-N,O=C(c1cccs1)Nc1ncc(s1)[N+](=O)[O-],-4.738420721,2.9613,255.274
,C6088,ZLVJUFHIMOUPMS-UHFFFAOYSA-N,O=C(c1cccnc1)Nc1ccc(cc1)C(F)F.Cl,-2.664793041,4.1465,284.689
,C5438,ZLVSYODPTJZFMK-UHFFFAOYSA-M,Brc1cc(C)c(c(c1)C)O,-3.075445454,2.7715,201.06
,C259,ZLWYEPMDOUQDBW-UHFFFAOYSA-N,CCn1c2cc(cc(c2[nH]c(=O)c2c1nccc2)C)N(C)C,-4.8699999,2.8343,296.367
,C9842,ZLYHSYOPYSDSHB-UHFFFAOYSA-N,[O-]C(=O)c1ccc(cc1)O.[Na+],0.795597818,-0.2443,160.103
,C8506,ZLYUUULYWWOPHJ-BNXVUDNTSA-N,Nc1ccc(cn1)C(=O)N,-0.891657811,1.0442,137.139
,C7538,ZLZWUOKDFLNZFV-LMOVPXPDSA-N,CCOC(=O)c1cnc2n(c1=O)c(C)ccc2,-1.714560209,1.1796,232.235
,C6397,ZLZWUOKDFLNZFV-UHFFFAOYSA-N,O[C@H]([C@H](C(=O)O)O)C(=O)O.Oc1ccc2c(c1)[C@]13CCCC[C@H]3[C@@H](C2)N(CC1)CCc1ccncc1,-2.477623272,1.9036,498.568
,C4087,ZLZWUOKDFLNZFV-UNTBIKODSA-N,CCC(=O)C(c1ccccc1)(c1ccccc1)[C@H](CN(C)C)C.Cl,-4.054664546,4.9515,345.906
,C4088,ZMANXGDEWNPXFF-UHFFFAOYSA-N,CCC(=O)C(C(C[NH+](C)C)C)(c1ccccc1)c1ccccc1.[Cl-],-4.054664546,-0.2636,345.906
,C4086,ZMANZCXQSJIPKH-UHFFFAOYSA-N,CCC(=O)C(c1ccccc1)(c1ccccc1)[C@@H](CN(C)C)C.Cl,-4.054664546,4.9515,345.906
,C7829,ZMHWQAHZKUPENF-UHFFFAOYSA-N,[O-][N+](=O)O.OCn1cnc2c1c(=O)n(C)c(=O)n2C,-1.509631918,-1.441,273.203
,C1543,ZMISODWVFHHWNR-UHFFFAOYSA-N,CCN(CC)CC,-0.14,1.3481,101.19
,C126,ZMJGSOSNSPKHNH-UHFFFAOYSA-N,Clc1ccc(cc1)c1cccc(c1Cl)Cl,-6.2600002,5.3138,257.543
,C4315,ZMMJGEGLRURXTF-UHFFFAOYSA-N,OC(c1ccccc1)(c1ccccc1)C1CCNCC1,-3.86292348,3.2509,267.365
,C9629,ZMNSRFNUONFLSP-UHFFFAOYSA-N,NCc1c(COP(=O)(O)O)cnc(c1O)C,0.605241969,0.8639,248.173
,C8071,ZMRKFJJMIJVTLK-UHFFFAOYSA-L,CC[n+]1c(c2ccccc2)c2cc(N)ccc2c2c1cc(N)cc2.[Br-],-1.294814415,2.2982,394.308
,C6504,ZMROYCGIWPNZNJ-UHFFFAOYSA-N,COc1ccccc1OCC1CNC(=O)O1,-2.406244562,1.5112,223.225
,C9182,ZMRUPTIKESYGQW-UHFFFAOYSA-N,C[N+]1(CCCC[n+]2ccc3c(c2)cccc3)CCCC1.[Br-].[Br-],0.107452927,-2.8853,430.22
,C5808,ZMTSMVZAFDWQRM-UHFFFAOYSA-N,CC(C(Cc1ccc(cc1)Cl)(O)C)CN(C)C.Cl,-2.846652258,3.6332,292.245
,C7159,ZMXGPGZXYJCCHZ-UHFFFAOYSA-N,OC(COc1cccc2c1cccc2)CNC(C)C.Cl,-1.992441966,3.7704,295.804
,C8011,ZMXIYERNXPIYFR-UHFFFAOYSA-N,NC(=O)NCCc1ccccc1,-1.346749847,1.9886,164.204
,C3952,ZMZGFLUUZLELNE-UHFFFAOYSA-N,O=C(c1cccnc1)OC(Cn1cnc2c1c(=O)n(C)c(=O)n2C)COC(=O)c1cccnc1,-4.139297836,0.3063,464.431
,C409,ZNAAXXGCHCCLDM-BTJKTKAUSA-N,CCc1cccc2c1cccc2,-4.1700001,3.4022,156.224
,C2008,ZNBNBTIDJSKEAM-NISBWGIBSA-N,Ic1cc(I)c(c(c1)C(=O)O)I,-7.141299486,3.1986,499.811
,C2529,ZNIFSRGNXRYGHF-UHFFFAOYSA-N,OC(=O)/C=C\C(=O)O.CC(CNCC1COC2(O1)c1ccccc1OCc1c2cccc1)C,-5.7811237,3.5438,455.5
,C1945,ZNJCQBBJHFLQAG-UHFFFAOYSA-N,CCC(=O)O[C@@H]([C@@H](C(=O)O)C)[C@@H]([C@H]1O[C@@]2(CC[C@@](O2)(C)[C@H]2CC[C@@](O2)(C)[C@@H]2O[C@H](C[C@@H]2C)[C@H]2O[C@@](O)(CO)[C@@H](C[C@@H]2C)C)C[C@@H]([C@H]1C)O)C,-7.529068965,4.1896,698.881
,C8076,ZNNFDLJQLKVLRQ-UHFFFAOYSA-N,Clc1cccc(c1NC1=NCCN1)Cl.Cl,-1.292239762,3.0039,266.555
,C6824,ZNNLBTZKUZBEKO-UHFFFAOYSA-N,Nc1nc2c(o1)c(Cl)ccc2,-2.193382294,2.6446,168.58
,C6234,ZNNZYHKDIALBAK-UHFFFAOYSA-M,CCC(Nc1c(C)n(C)c(=O)n(c1=O)c1ccccc1)C,-2.571940139,2.128,287.357
,C228,ZNOLGFHPUIJIMJ-UHFFFAOYSA-N,COc1ccc(cc1C(=O)NCCc1ccc(cc1)S(=O)(=O)NC(=O)NC1CCCCC1)Cl,-5.0900002,5.8952,494.004
,C9921,ZNPQLXDWQPMSMR-UHFFFAOYSA-N,[S-]C#N.[K+],1.012440968,0.01438,97.1807
,C445,ZNQJFIFFHMOZQQ-UHFFFAOYSA-N,COP(=S)(Oc1ccc(c(c1)C)[N+](=O)[O-])OC,-4.04,3.9731,277.234
,C9107,ZNRUHYACSYSCBU-UHFFFAOYSA-N,ClCCNCC.Cl,-0.015465297,2.0276,144.043
,C8346,ZNSMNVMLTJELDZ-UHFFFAOYSA-N,CN1CCc2c(C1)cccc2.Cl,-1.036172802,2.4144,183.678
,C3980,ZNSSPLQZSUWFJT-UHFFFAOYSA-N,COc1cc(cc(c1OC)OC)C(=O)N1CCCc2c1cccc2,-4.118852797,3.3704,327.374
,C1348,ZNSUNUVCVXQNKB-UHFFFAOYSA-N,ClCCOCCCl,-1.12,1.4806,143.012
,C4391,ZNXZGRMVNNHPCA-VIFPVBQESA-N,CCCCCOC(=O)c1ccc(cc1)O,-3.81344963,2.7392,208.254
,C3938,ZOCHHNOQQHDWHG-ZCFIWIBFSA-N,CCOc1ccc(cc1)C(=O)OCCCN1CCCCC1C,-4.148434895,3.4445,305.412
,C8596,ZOKXUAHZSKEQSS-UHFFFAOYSA-N,SCCNC(=O)CCNC(=O)[C@@H](C(CO)(C)C)O,-0.796257738,-0.3001,278.368
,C1430,ZOLBALGTFCCTJF-UHFFFAOYSA-N,CCC[C@@H](CC)O,-0.80000001,1.5574,102.175
,C226,ZOMBFZRWMLIDPX-UHFFFAOYSA-N,CCCCSP(=O)(SCCCC)SCCCC,-5.1399999,6.6944,314.511
,C9298,ZOMSMJKLGFBRBS-UHFFFAOYSA-N,OS(=O)(=O)O.CC(NCC(c1ccc(c(c1)O)O)O)C.CC(NCC(c1ccc(c(c1)O)O)O)C,0.272059807,3.4682,520.594
,C3137,ZOOUBGRVRUUFQX-UHFFFAOYSA-N,CCN1CC(C(C1=O)(c1ccccc1)c1ccccc1)CCN1CCOCC1.Cl.O,-4.936639147,3.7868,432.983
,C819,ZOPFXVXOZZFVGS-UHFFFAOYSA-N,CC(N1C(=O)c2ccccc2NS1(=O)=O)C,-2.6800001,2.3642,240.279
,C3446,ZOSQTCOGKFRDET-UHFFFAOYSA-L,O=C(c1ccc(c(c1)C)C)Cc1ccccc1C(=O)O,-4.586030873,3.427,268.307
,C4619,ZOWYFYXTIWQBEP-UHFFFAOYSA-N,O=C(c1ccc(c(c1)I)F)OCCC[NH+]1CCOCC1.[Cl-],-3.656769891,-0.5345,429.653
,C6415,ZOXROYAHTWXWDS-UHFFFAOYSA-N,C[N+](CCC[N+]1(C)CC2CCC(C1)(C2(C)C)C)(C)C.COS(=O)(=O)[O-].COS(=O)(=O)[O-],-2.46341794,3.2918,490.675
,C2146,ZOZABKCYUYXXRS-UHFFFAOYSA-N,CCOc1ccc(cc1OCC)Cc1nccc2c1cc(OCC)c(c2)OCC,-6.664874603,5.4204,395.491
,C3255,ZPACYDRSPFRDHO-ROBAGEODSA-N,COC(=O)c1c(C)ccc(c1OCC(=O)OCCN1CCCCC1)C(C)C,-4.796577773,3.2508,377.475
,C6799,ZPAKPRAICRBAOD-UHFFFAOYSA-N,[O-][N+](=O)c1ccc2c(c1)CONC2,-2.214272896,1.9816,180.161
,C1738,ZPANWZBSGMDWON-UHFFFAOYSA-N,C/C(=C\CCC(=O)OC/C=C(/CCC=C(C)C)\C)/CC/C=C(/CCC=C(C)C)\C,-11.4756571,8.4217,400.637
,C232,ZPBNOWWJKRKBEV-YZMZVZPOSA-N,O=C(c1ccc(cc1)c1ccccc1)CCC(=O)O,-5.0599999,3.4011,254.281
,C2180,ZPDJJEQOURSXEY-UHFFFAOYSA-N,Oc1ccc2c(c1Cc1c(O)ccc3c1cccc3)cccc2,-6.538118491,4.995,300.351
,C1725,ZPEIMTDSQAKGNT-UHFFFAOYSA-N,CO[C@H]1/C=C/O[C@@]2(C)Oc3c(C2=O)c2C(=O)/C(=C/NOCCCc4ccccc4)/C(=C(c2c(c3C)O)O)NC(=O)/C(=C\C=C\[C@@H]([C@@H]([C@H]([C@H]([C@H]([C@@H]([C@@H]1C)OC(=O)C)C)O)C)O)C)/C,-12.83707405,6.5479,858.969
,C1805,ZPFXAOWNKLFJDN-UHFFFAOYSA-N,N(Cc1ccc2c(c1)cccc2)CC1CCC(CC1)CNCc1ccc2c(c1)cccc2.Cl.Cl,-9.085477305,9.0646,495.526
,C238,ZPHBZEQOLSRPAK-XLCYBJAPSA-N,CN(CCCN1c2ccccc2Sc2c1cc(Cl)cc2)C,-5.0100002,4.9594,318.864
,C3062,ZPIZOEMTEYVDGD-UHFFFAOYSA-N,CCN(CCCc1ccccc1)CCCc1ccccc1,-5.025980708,4.5739,281.435
,C5400,ZPMVNZLARAEGHB-UHFFFAOYSA-N,CC(C[C@@H](C(=O)N[C@H](C(=O)O)Cc1c[nH]c2c1cccc2)NP(=O)(O[C@@H]1O[C@@H](C)[C@@H]([C@H]([C@H]1O)O)O)O)C,-3.101739091,1.0104,543.504
,C2043,ZPOGTLCICRJACI-UHFFFAOYSA-N,CCCCCCCCCCCCCCCCCCNCCSS(=O)(=O)O,-7.03038987,7.8452,409.69
,C2737,ZPOLNCDBPYJDSE-ZDUSSCGKSA-N,CN1CCC(=C2c3ccccc3C=Cc3c2cccc3)CC1.Cl,-5.453457838,5.4378,323.859
,C5240,ZPQAKYPOZRXKFA-UHFFFAOYSA-N,C=CCc1cc(C)ccc1OCC(CO)O,-3.213369295,1.4555,222.28
,C5784,ZPQOPVIELGIULI-UHFFFAOYSA-N,ClCCN(c1ccc(cc1)C[C@@H](C(=O)O)NC=O)CCCl,-2.859958905,2.7391,333.21
,C4812,ZPQPDBIHYCBNIG-UHFFFAOYSA-N,CCCCCC(=O)CCCCC,-3.532234468,3.7161,170.292
,C709,ZPROCDMEUHMNTJ-UHFFFAOYSA-N,Clc1cccc(c1)Cl,-3.04,2.9934,147.002
,C7088,ZPRSVXOVKPKZDL-UHFFFAOYSA-N,OC(COc1cccc2c1oc(c2)C(=O)C)CNC(C)C,-2.04214907,2.764,291.342
,C3989,ZPTVNYMJQHSSEA-UHFFFAOYSA-N,CCCCCSCCCCCCN1CSCC1.Cl,-4.115716338,5.2164,311.978
,C3136,ZPUCINDJVBIVPJ-LJISPDSOSA-N,CCC(=O)C(c1ccccc1)(c1ccccc1)C(CN1CCCC1)C,-4.939093569,4.6216,335.482
,C892,ZPUCINDJVBIVPJ-LXTVHRRPSA-N,Cc1ccc(cc1)[N+](=O)[O-],-2.49,2.4264,137.136
,C1699,ZPVFWPFBNIEHGJ-UHFFFAOYSA-N,COC(=O)[C@H]1[C@H](C[C@H]2N([C@@H]1CC2)C)OC(=O)c1ccccc1	,-2.25 ,1.8056,303.353
,C992,ZPXSCAKFGYXMGA-UHFFFAOYSA-N,COC(=O)[C@H]1[C@@H](C[C@@H]2N([C@H]1CC2)C)OC(=O)c1ccccc1,-2.23,1.8056,303.353
,C1057,ZQBAKBUEJOMQEX-UHFFFAOYSA-N,CCCCCCC(=O)C,-2.05,2.5458,128.212
,C2865,ZQDJSWUEGOYDGT-UHFFFAOYSA-N,Clc1ccc(cc1)C1(O)c2ccccc2C2=NCCN12,-5.267496736,1.9827,284.74
,C675,ZQDWXGKKHFNSQK-UHFFFAOYSA-N,O=C(c1ccccc1O)Oc1ccccc1,-3.1500001,2.6114,214.217
,C4131,ZQEHLMSPKOCPPS-UHFFFAOYSA-N,CN(CCOC(c1ccc(cc1)Br)c1ccccc1)C.Cl,-4.020036897,4.9187,370.712
,C5657,ZQEIXNIJLIKNTD-GFCCVEGCSA-N,OCCOCCN1CCN(CC1)C(c1ccc(cc1)Cl)c1ccccc1,-2.942482097,2.9317,374.904
,C4280,ZQHYKVKNPWDQSL-UHFFFAOYSA-N,C[NH+]1C2CCC1CC(C2)OC(=O)C(=C)c1ccccc1Cl.[Cl-],-3.895866902,0.6777,342.26
,C1202,ZQJUQBSXMSRMMB-UHFFFAOYSA-N,COCC(=O)N(c1c(C)cccc1C)[C@@H](C(=O)OC)C,-1.6,1.8443,279.332
,C3130,ZQMBKJWVFPOZHQ-UHFFFAOYSA-N,Oc1ccc2c(c1)C1(C)CCN(C(C2)C1C)CCc1ccccc1,-4.942347946,4.097,321.456
,C4448,ZQMKOOCHXJRCFG-UHFFFAOYSA-N,C[NH+](CCN(c1ccccn1)Cc1ccc(cc1)Br)C.[Cl-],-3.764905401,-1.0008,370.715
,C3000,ZQNFUXDRYQQYAQ-UHFFFAOYSA-N,CN(CC(CC1(OC(c2c1cccc2)(C)C)c1ccccc1)C)C.Cl,-5.109069656,5.5853,359.933
,C5939,ZQPXSRTZFYHSFB-UHFFFAOYSA-N,Brc1ccc2c(c1)N(C(=O)CC(=N2)N)c1ccccc1,-2.759845447,3.7071,330.179
,C5331,ZQSIJRDFPHDXIC-UHFFFAOYSA-N,NC(C(c1ccccc1)(c1ccccc1)O)c1ccccc1,-3.143402161,4.3228,289.371
,C5380,ZQTVCQIJTREKSP-UHFFFAOYSA-N,CCC(=O)c1ccc(cc1)OCC(CN1CCN(CC1)c1ccccc1)O,-3.11004434,2.8441,368.469
,C3714,ZQUPQXINXTWCQR-UHFFFAOYSA-N,Oc1ccc(cc1)c1coc2c(c1=O)ccc(c2)O,-4.331893886,2.8712,254.237
,C3542,ZQWBGSZBBGYKNV-UHFFFAOYSA-N,CCC(=O)c1ccc2c(c1)N(CCCN(C)C)c1c(S2)cccc1,-4.490310652,4.8987,340.482
,C54,ZQWSMVNUPDUGRL-UHFFFAOYSA-N,Clc1ccc(cc1Cl)c1c(Cl)cc(c(c1Cl)Cl)Cl,-7.6599998,7.274,360.878
,C2047,ZQZJKHIIQFPZCS-UHFFFAOYSA-N,CCOc1ccc(cc1)N=C(Nc1ccc(cc1)OC)Nc1ccc(cc1)OC.Cl,-7.024990344,6.2622,427.924
,C6933,ZRCMOECJOLTRBV-NHTMILBNSA-N,CCCCC1(C)OCC(O1)CO,-2.133937918,1.3005,174.237
,C8214,ZRCMOECJOLTRBV-QPTUXGOLSA-N,CCCNC(=O)N,-1.165950319,1.1559,102.135