Name,Compound ID,InChIKey,SMILES,logS,logP,MW
,C4067,SSBPLEKEDHPOCG-UHFFFAOYSA-N,CCC(C(C(C[NH+](C)C)C)(c1ccccc1)c1ccccc1)O.[Cl-],-4.065816944,-0.4718,347.922
,C8845,SSFVDURSAGMHMD-UHFFFAOYSA-N,CC(CN1CCCCC1)(O)C,-0.448421959,1.1811,157.253
,C5908,SSGLLHWEINBKAA-UHFFFAOYSA-N,[O-][N+](=O)c1ccc2c(c1)CON(C2)CCc1cc[nH+]cc1.[Cl-],-2.774336124,-0.6361,321.759
,C3257,SSGTUBQRKAFHOM-PCEILQJBSA-N,Clc1ccc(cc1)C(c1ccc(cc1)Cl)OCC[NH2+]N1CCOCC1.[Cl-],-4.789051882,-0.1481,417.757
,C4489,SSHUEVNEGPWTJB-UHFFFAOYSA-N,CCC(c1ccccc1)(C(=O)N)CCN1CCCCC1,-3.734246236,3.3339,274.401
,C6598,SSJCLYBTEHEIIL-FLCXFYETSA-N,C/C=C\1/C[NH+]2CCC1CC2C(c1cc[nH+]c2c1cc(O)cc2)O.[Cl-].[Cl-],-2.345507434,-3.4065,383.312
,C2497,SSLKKMZJCJBOML-UHFFFAOYSA-N,Nc1ccnc(n1)N1CCN(CC1)CCC(c1ccccc1)(c1ccccc1)c1ccccc1,-5.842595707,5.1896,449.59
,C5508,SSOLNOMRVKKSON-UHFFFAOYSA-N,CCN1CC[C@@]23[C@H]([C@H]1Cc1c3cc(cc1)O)CCCC2.Br,-3.033714779,4.3665,352.309
,C1165,SSOXZAQUVINQSA-BTJKTKAUSA-N,CCN(C(=O)CSc1ccc(nn1)Cl)CC,-1.72,2.0905,259.756
,C5244,SSPYSWLZOPCOLO-UHFFFAOYSA-N,CC(/N=C(/N=C(/Nc1ccc(cc1)Cl)\N)\N)C,-3.211811196,3.2633,253.731
,C8768,SSZWWUDQMAHNAQ-UHFFFAOYSA-N,CN(CCC(c1ccccn1)c1ccccc1)C.OC(=O)/C=C\C(=O)O,-0.561181811,2.877,356.416
,C8562,STBZIDOIKQNFCQ-HSALFYBXSA-N,O=c1cn[nH]c(=O)[nH]1,-0.833262349,-1.5418,113.075
,C9909,STCLNNAAQVYUAF-UHFFFAOYSA-N,OCC(CCl)O,0.956492326,-0.4216,110.539
,C6152,STDBAQMTJLUMFW-UHFFFAOYSA-N,Oc1ccc2c(c1)[C@]13CCCC[C@]3([C@@H](C2)N(CC1)CC1CC1)O,-2.623999545,2.9134,313.434
,C5957,STECJAGHUSJQJN-KXKVQDCLSA-N,CN1CCN(CC1)CC(C(=O)c1ccccc1)c1ccccc1.Cl.Cl,-2.744989385,4.3803,381.339
,C1184,STHZIWWZUMRBQV-UHFFFAOYSA-N,CCCCC1(CC)C(=O)NC(=O)NC1=O,-1.64,1.5966,212.246
,C1485,STIDRZRESMTQBD-UHFFFAOYSA-N,OC[C@@H](c1ccccc1)C(=O)O[C@@H]1C[C@@H]2N([C@H](C1)[C@H]1[C@@H]2O1)C,-0.47999999,0.856,303.353
,C6754,STIGEALBGPUGBV-UHFFFAOYSA-M,CCN(C(=O)c1nnn(c1C)c1ccc(cc1)N)CC.Cl,-2.245565942,3.0231,309.794
,C5509,STISWHNAAJTCNP-UHFFFAOYSA-L,Cc1cc(C)c(c(c1C)C(=O)O)C,-3.0334993,2.6184,178.228
,C3312,STJGROCZENGPFG-UHFFFAOYSA-N,NC(=O)NO[Sb](=O)(c1ccc(cc1)N)O,-4.716286716,1.4964,321.932
,C9460,STJLVHWMYQXCPB-DOMZBBRYSA-N,CC[N+](CCCCCC[N+](CC)(CC)C)(CC)C.[Br-].[Br-],0.378510059,-2.4724,418.294
,C4290,STJMRWALKKWQGH-UHFFFAOYSA-N,ClCC[NH+](CCOc1ccccc1OC)CCOc1ccccc1OC.[Cl-],-3.885447798,-0.7107,416.339
,C576,STLWFARPOWOHSM-UHFFFAOYSA-N,CCC[C@@H]1CO[C@](O1)(Cn1cncn1)c1ccc(cc1Cl)Cl,-3.49,3.6534,342.22
,C7257,STMCRUBVLOKMKB-UHFFFAOYSA-N,OC(c1cc(Cl)c(c(c1)Cl)N)CNC(C)(C)C,-1.921637908,3.9692,277.19
,C5133,STMDPCBYJCIZOD-UHFFFAOYSA-N,COC(=O)c1c(C)ccc(c1OCCN1CCOCC1)C(C)C,-3.286960742,2.5539,321.411
,C5259,STOJUOWCDNPDIQ-UHFFFAOYSA-N,CN1CCC(CC1)NCC1CCC(CC1)CNC1CCN(CC1)C,-3.196659036,2.818,336.558
,C4899,STOUHHBZBQBYHH-UHFFFAOYSA-N,CC(CC(C(=O)O)Nc1ccc(cc1[N+](=O)[O-])[N+](=O)[O-])C,-3.456113361,3.5336,297.264
,C2414,STQGQHZAVUOBTE-VGBVRHCVSA-N,CCN(CCCN(c1c(C)cccc1C)C(=O)Cc1ccccc1)CC,-5.989077924,4.611,352.513
,C6801,STUSTWKEFDQFFZ-KPKJPENVSA-N,CC(=O)Oc1cccc(c1)OC(=O)C,-2.212670954,1.5372,194.184
,C3965,STVVMTBJNDTZBF-VIFPVBQESA-N,COc1cccc2c1C(=O)c1c(C2=O)c(O)c2c(c1O)[C@@H](O[C@H]1C[C@H](N)[C@@H]([C@@H](O1)C)O)C[C@](C2)(O)C(=O)C,-4.129290298,1.7292,527.52
,C756,STYQHICBPYRHQK-UHFFFAOYSA-N,CN(/C=N/c1ccc(cc1C)Cl)C,-2.8599999,2.8698,196.677
,C9524,SUAMAHKUSIHRMR-UHFFFAOYSA-M,OC[C@H](Cc1ccccc1)N,0.454899629,1.249,151.206
,C7006,SUBDBMMJDZJVOS-UHFFFAOYSA-N,Brc1ccc(cc1)S(=O)(=O)N,-2.084145091,2.8776,236.086
,C9896,SUGBVZMJIRBHEZ-AWEZNQCLSA-N,[O-]C(=O)C(=O)CC.[Na+],0.906329717,-1.2846,124.07
,C4673,SUGBVZMJIRBHEZ-CQSZACIVSA-N,COc1ccc2c(c1)[nH]c(n2)S(=O)Cc1ncc(c(c1C)OC)C,-3.623049412,3.7654,345.416
,C3281,SUGBVZMJIRBHEZ-UHFFFAOYSA-N,CCCCN1CCC[C@@H](C1)OC(=O)Nc1c(C)cccc1Cl,-4.754285505,4.4723,324.846
,C3282,SUGUXNYMDILWAX-UHFFFAOYSA-L,CCCCN1CCC[C@H](C1)OC(=O)Nc1c(C)cccc1Cl,-4.754285505,4.4723,324.846
,C2912,SUHOOTKUPISOBE-UHFFFAOYSA-N,CCCCN1CCCC(C1)OC(=O)Nc1c(C)cccc1Cl,-5.210651539,4.4723,324.846
,C9405,SUHOQUVVVLNYQR-MRVPVSSYSA-N,COc1cc2c[n+](CCC[N+](C)(C)C)ccc2cc1OC.[Br-].[Br-],0.34658004,-3.7512,450.209
,C9876,SUKRRJYMPHOCIP-UHFFFAOYSA-N,NCCOP(=O)(O)O,0.850586884,-0.2453,141.063
,C9617,SUPCQIBBMFXVTL-UHFFFAOYSA-N,OC[C@H](COP(=O)(OCC[N+](C)(C)C)[O-])O,0.589690218,-0.3824,257.221
,C2878,SUPLROXPVQPDDY-UHFFFAOYSA-N,CN(CCCn1c2ccccc2[nH]c(=O)c2c1cccc2)C,-5.255546045,2.9967,295.379
,C8030,SUQGLJRNDJRARS-UHFFFAOYSA-N,CCOC(=O)C(=C)C,-1.325059328,1.1256,114.142
,C9227,SUTGJZFFEVGULT-UHFFFAOYSA-N,FCCNCCF.Br,0.179055158,1.864,190.03
,C2634,SUWFVOCAJFPMMR-UHFFFAOYSA-L,O=C(c1ccccc1)Oc1cccc(c1)OC(=O)c1ccccc1,-5.600871949,4.125,318.323
,C7756,SUZZKNCPUCQBBP-UHFFFAOYSA-N,OCC(COc1ccc(cc1OC)C(=O)CC)O,-1.563330814,1.0199,254.279
,C4944,SVAAQXJOGYYYEY-UHFFFAOYSA-N,C[N+]1(CCCC[N+]2(C)CCCC2)CCCC1.[I-].[I-],-3.423758964,-3.827,480.21
,C2044,SVANEUDZNISLJD-UHFFFAOYSA-N,ClCCN(c1ccc(cc1)OC(=O)c1cccc(c1)Br)CCCl,-7.025872618,4.9523,417.124
,C7049,SVBNKTIROPNBQH-UHFFFAOYSA-N,O=C(Nc1ccccc1)COc1ccccc1C(=O)N,-2.058914746,2.5763,270.283
,C4635,SVDOODSCHVSYEK-IFLJXUKPSA-N,NNc1c2ccccc2nc2c1cccc2,-3.64764871,3.4469,209.247
,C7361,SVFKQHLOBRUZGV-UHFFFAOYSA-N,CN(CCN(c1ncccn1)Cc1ccccc1)C,-1.838295464,2.0448,256.346
,C8627,SVJMILFDDBKCGG-UHFFFAOYSA-N,CN([C@@H]1C(=O)C(=C([C@@]2([C@H]1[C@@H](O)[C@H]1C(=C(O)c3c([C@@]1(C)O)cccc3O)C2=O)O)O)C(=O)N)C.Cl,-0.767358684,0.1021,496.895
,C845,SVMALHWUCBPBFC-UHFFFAOYSA-N,CCn1c2ncccc2n(c(=O)c2c1nccc2)C,-2.6199999,1.8653,254.287
,C4080,SVOAUHHKPGKPQK-AWEZNQCLSA-N,N/C(=N\C(=N\C(C)C)\N)/Nc1ccc(c(c1)Cl)Cl.Cl,-4.058075663,4.7187,324.637
,C3971,SVPKNMBRVBMTLB-UHFFFAOYSA-N,BrCCN(c1ccc(cc1)O)CCBr,-4.125424829,2.9884,323.024
,C406,SVQPFJPZAKQLCE-TTWKNDKESA-N,Clc1ccc2c(c1)[C@](O)(C(=O)O)c1c2cccc1,-4.1799998,2.6409,260.672
,C3591,SVSWMJWPWQDOBP-UHFFFAOYSA-L,O=C1C(=C(Cl)C(=O)c2c1cccc2)Cl,-4.453012372,2.7548,227.044
,C4220,SVUNHVRERLOSES-UHFFFAOYSA-N,COc1cc(/C=C/C(=O)CCN2CCN(CC2)C2CCCCC2)cc(c1OC)OC.Cl.Cl,-3.946223412,5.1149,489.476
,C9437,SVWFQLTYQIKJRN-UHFFFAOYSA-N,C[N+]1(CCC[n+]2ccc3c(c2)cccc3)CCOCC1.[Br-].[Br-],0.364315227,-4.039,432.193
,C4119,SVWGJWSFYJTBFL-UHFFFAOYSA-N,ClCC[NH+](CCOc1ccccc1C(C)C)CC.[Cl-],-4.026713389,-0.6636,306.271
,C2711,SVYBEBLNQGDRHF-UHFFFAOYSA-N,Clc1ccc2c(c1)C(=O)c1cccnc1CC2,-5.494743105,3.0646,243.688
,C2443,SWAHCTPCIUXXTQ-UHFFFAOYSA-N,CC(CCc1ccc(cc1)C(=O)OCCCN1CCCCC1C)C,-5.932772568,4.6344,331.492
,C1093,SWAJJKROCOJICG-UHFFFAOYSA-N,CCc1nnc(s1)NS(=O)(=O)c1ccc(cc1)N,-1.9400001,3.2185,284.358
,C9238,SWECWXGUJQLXJF-BTJKTKAUSA-N,OC(=O)CCN1C(=S)SCC1=O,0.19692782,0.2593,205.255
,C7625,SWIJYDAEGSIQPZ-UHFFFAOYSA-N,COc1ccc(cc1)NC(=O)CC(=O)C,-1.642508533,1.6858,207.226
,C4945,SWIRFWUEJODNRG-LTCKWSDVSA-L,CN(CCC1=C(C(c2ccccn2)C)c2c(C1)cccc2)C.OC(=O)/C=C\C(=O)O,-3.423669203,3.8585,408.49
,C5086,SWJPEBQEEAHIGZ-UHFFFAOYSA-N,CCN(CC#CCOC(=O)C(c1ccccc1)(C1CCCCC1)O)CC.Cl,-3.323834008,4.1449,393.947
,C9365,SWKGFZTXWQMFLK-UHFFFAOYSA-N,[O-]C(=O)CC[C@@H](C(=O)[O-])NC(=O)c1ccc(cc1)NCc1cnc2c(n1)c(=O)nc([nH]2)N.[Na+].[Na+],0.313928851,-1.6691,485.361
,C439,SWLAMJPTOQZTAE-UHFFFAOYSA-N,Brc1ccc(cc1)Br,-4.0700002,3.2116,235.904
,C5933,SWMGXKSQWDSBKV-LURJTMIESA-N,Cn1c2nc([nH]c2c(=O)n(c1=O)C)Cc1ccccc1,-2.763447259,0.5511,270.287
,C3502,SWMGZHSQTIHKNA-UHFFFAOYSA-N,COc1ccc(cc1C(=O)NCCc1ccc(cc1)C(=O)O)Cl,-4.537479631,3.4102,333.766
,C1120,SWNNISFWMQYKEP-UHFFFAOYSA-N,O[C@H]1CN(C(=O)N1c1nnc(s1)C(C)(C)C)C,-1.88,1.0287,256.325
,C4275,SWOLRLFHKOMEEY-UHFFFAOYSA-N,ClCCN(c1cc(ccc1C)C(=O)N1CCOCC1)CCCl,-3.900661581,2.6893,345.264
,C4388,SWPGGPQCAMUQDY-UHFFFAOYSA-N,OS(=O)(=O)SCCCNCCCCCOC1CCCCCCC1,-3.814823381,5.2736,367.568
,C7739,SWRGUMCEJHQWEE-UHFFFAOYSA-N,CCCC(CCC)CN.Cl,-1.572931887,3.6638,165.704
,C2197,SWSRADGPGOTAJT-UHFFFAOYSA-N,BrCCN(c1ccc(cc1)OC(=O)c1ccccc1)CCBr,-6.49068708,4.502,427.13
,C9901,SWUJAINMZHBCAY-UHFFFAOYSA-N,NNC(=O)C(=O)NN,0.927764812,-0.8514,118.095
,C7788,SWXGTCKIGMOVFI-UHFFFAOYSA-N,CCC(NC(=S)C(=S)NC(CC)C)C,-1.536939844,3.1992,232.409
,C7716,SWZKVMOOTCVDGL-UHFFFAOYSA-N,CN1CC2CCC(C1)N2C(=O)C,-1.587440029,0.1871,168.236
,C2866,SXBBEBWJKCVUGH-UHFFFAOYSA-N,O=C1NC(=O)C2(C1)c1ccccc1CCc1c2cccc1,-5.266894631,2.4466,277.317
,C4636,SXCBDZAEHILGLM-UHFFFAOYSA-N,CCCCSc1ccc(cc1C)CC(=O)NO,-3.647101942,3.326,253.36
,C8973,SXCIMUIAZXOVIR-PUCKCBAPSA-N,SCC(NCCC#N)(C)C.Cl,-0.255989013,2.39098,194.725
,C8468,SXDTZLOWSYNYRT-UHFFFAOYSA-N,OCCCCCCCO,-0.927838407,0.9215,132.201
,C3361,SXEIAGBDJHXATF-UHFFFAOYSA-L,OCC(=O)[C@@]1(O)C[C@H](O[C@@H]2O[C@@H](C)[C@H]([C@H](C2)N2CCOCC2)O)c2c(C1)c(O)c1c(c2O)C(=O)c2c(C1=O)cccc2OC,-4.670625401,0.3127,613.609
,C9208,SXEJUWIDHIUSSV-UHFFFAOYSA-L,COc1ccc(cc1)C(C(N)C)O.Cl,0.150706272,2.5781,217.693
,C9381,SXERGJJQSKIUIC-UHFFFAOYSA-N,CC[N+](CCOCC[N+](C)(C)C)(CC)C.[I-].[I-],0.325879536,-4.7964,472.188
,C9407,SXHWIUYWGJFLKB-UHFFFAOYSA-N,C[N+](c1ccc(cc1)[N+](C)(C)C)(C)C.[I-].[I-],0.348595003,-3.912,448.125
,C7830,SXKOCXTXIUNMEN-UHFFFAOYSA-N,CC(C(=O)O)Oc1ccccc1,-1.509605156,1.5385,166.174
,C2652,SXNFFTJCEYBMAS-ZROIWOOFSA-N,C#CC(c1ccccc1)(c1ccc(cc1)Cl)OC(=O)N,-5.571722496,4.0124,285.725
,C4824,SXOYTTUKVFYFPB-UHFFFAOYSA-N,CCC(=O)C(c1ccccc1)(c1ccccc1)CCN1CCOCC1,-3.523904802,3.612,337.455
,C7415,SXPGFJZLDDFUHA-UHFFFAOYSA-N,OCCN1CCN(CC1)CC(=O)N/N=C\c1ccc(o1)[N+](=O)[O-],-1.808166935,0.0377,325.32
,C4455,SXPONSAEIRBHLH-UHFFFAOYSA-N,CSc1ccc2c(c1)N(CCC1CCCNC1)c1c(S2)cccc1,-3.759023956,5.7947,356.548
,C6807,SXSCTOBLBXISDM-UHFFFAOYSA-L,CCCCN(CCCl)CCCl,-2.203530746,2.5661,198.133
,C4243,SXSWMAUXEHKFGX-ZCFIWIBFSA-N,SCCNCCCCCOc1ncc(cc1Cl)Cl.Cl,-3.93125315,4.6498,345.716
,C9321,SXULDGPVPLBPKQ-UHFFFAOYSA-N,C[N+](Cc1ccccc1)(CCCCCC[N+](Cc1ccccc1)(C)C)C.[Br-].[Br-],0.288707474,-0.892,514.38
,C1513,SXYLQUYLIISZOT-UHFFFAOYSA-N,OC[C@H](C(C)C)C,-0.38999999,1.2708,102.175
,C3330,SXZZHGJWUBJKHH-UHFFFAOYSA-N,CC(N(C(C)C)C)CC12CC3CC(C2)CC(C1)C3.Cl,-4.695038327,5.1236,285.896
,C2196,SYAKTDIEAPMBAL-UHFFFAOYSA-N,ClCCN(c1ccc(cc1)OC(=O)c1cccc(c1)Cl)CCCl,-6.492143199,4.8432,372.673
,C5575,SYARWWXCNNFEHU-UHFFFAOYSA-N,[O-][N+](=O)c1ccc(o1)c1nnc(s1)N,-2.994272126,2.3929,212.186
,C7219,SYBYTAAJFKOIEJ-UHFFFAOYSA-N,NC1=NCC(O1)c1ccccc1,-1.946156752,1.2085,162.189
,C2763,SYCBXBCPLUFJID-UHFFFAOYSA-N,O=C1NC(=O)C2(O1)c1ccccc1CCc1c2cccc1,-5.416679399,2.624,279.29
,C1547,SYCHUQUJURZQMO-UHFFFAOYSA-N,CC(=O)C(C)C,-0.12,1.2314,86.1323
,C5203,SYFLVOYYHASAMF-UHFFFAOYSA-N,CCCCOc1ccc(cc1)OCCCN1CCOCC1.Cl,-3.237302857,3.7065,329.862
,C5465,SYFXJBNDAATWMO-UHFFFAOYSA-N,O=C(C1=C(O)c2ccccc2S(=O)(=O)N1C)Nc1nccs1,-3.06064379,2.7342,337.374
,C2899,SYGHQFHDDIIPNX-UHFFFAOYSA-N,C1CCN(CC1)CCCC12CC3CC(C2)CC(C1)C3.Cl,-5.228573886,5.2088,297.906
,C3242,SYHDSBBKRLVLFF-UHFFFAOYSA-N,CC(COC(=O)c1c(C)ccc(c1OCCN(C)C)C(C)C)C,-4.814281372,3.8716,321.454
,C269,SYJOHJHUOWQNTH-UHFFFAOYSA-N,FCCN1c2ccccc2Cc2c(C1=O)cccc2,-4.8000002,3.2721,255.287
,C2019,SYKKEUORZVAILP-XPXLQCACSA-N,CCN(CCOc1ccc(cc1)C(c1ccc(cc1)C)(Cc1ccc(cc1)Cl)O)CC,-7.112180045,5.8476,438.001
,C4810,SYMHUEFSSMBHJA-UHFFFAOYSA-N,CCC(COC(=O)N(C)C)(COC(=O)N(C)C)CC,-3.535775582,2.1892,274.357
,C1721,SYNHCENRCUAUNM-UHFFFAOYSA-N,CCCCCCCOc1ccc(c2c1cccc2)C(=N)[NH+](CCCCCCCC)CCCCCCCC.[Cl-],-13.61935865,6.224,545.282
,C9221,SYNKGZURWSKSDC-ONXXMXGDSA-N,Cc1ncnc2c1[nH]cn2,0.173465218,0.6613,134.139
,C9733,SYSHPMOZZLONAK-UHFFFAOYSA-N,ClCC[N+](CCCl)(C)[O-].Cl,0.68087936,2.2313,208.514
,C6672,SYTBZMRGLBWNTM-JTQLQIEISA-N,CN1[C@@H]2CC[C@H]1CC(C2)Oc1ccccc1,-2.295691024,2.6285,217.307
,C5569,SYTBZMRGLBWNTM-UHFFFAOYSA-N,CCN(CCC1(CCC(=O)NC1=O)c1ccccc1)CC.Cl,-2.999798173,3.2237,324.846
,C335,SYVNKOFCGRDUIF-UHFFFAOYSA-N,OC(=O)[C@H](c1ccc(c(c1)F)c1ccccc1)C,-4.4899998,3.6808,244.261
,C1682,SYWHXTATXSMDSB-GSLJADNHSA-N,OC(=O)C(c1ccc(c(c1)F)c1ccccc1)C	,-4.15 ,3.6808,244.261
,C7944,SYYSYOYRAULAGV-UHFFFAOYSA-M,CN1CC2CCC(C1)N2CCOC(=O)c1ccc(cc1)N,-1.424040514,1.661,289.373
,C3848,SYZIUAAQNFJPJY-UHFFFAOYSA-N,CC(=O)OCC(=O)[C@@]1(O)CC[C@@H]2[C@]1(C)C[C@H](O)[C@]1([C@H]2CCC2=CC(=O)CC[C@]12C)F,-4.209179021,2.4445,422.487
,C9563,SZAIAWVGWTXVMB-UHFFFAOYSA-N,C(=C/C=[N+]/1\CC=CC1)C=CN1CC=CC1.[O-][Cl](=O)(=O)=O,0.521810234,1.6922,300.738
,C7496,SZCZSKMCTGEJKI-VOTSOKGWSA-N,O=C1OCc2c(N1)cccc2,-1.737457699,1.8867,149.147
,C9886,SZEGKVHRCLBFKJ-UHFFFAOYSA-N,O=S1(=O)CC2C(C1)O2,0.87241256,0.263,134.154
,C6901,SZERMVMTUUAYML-JGVFFNPUSA-N,COc1ccc(cc1)/C=C/NC=O,-2.150866741,2.4387,177.2
,C1983,SZIOUVHAMOMVLJ-UHFFFAOYSA-N,CCCCCCCCCCCCCCCCCCNC,-7.243105463,6.8582,283.536
,C1164,SZJNCZMRZAUNQT-IUCAKERBSA-N,CCCC[C@@H]([C@H](O)C)C,-1.72,2.1935,130.228
,C3424,SZKQYDBPUCZLRX-UHFFFAOYSA-N,Clc1ccc(nc1)SCCCCCCCN1CCSC1.Cl,-4.606087109,5.5238,367.4
,C7091,SZLPEYBCBJPFBC-UHFFFAOYSA-N,CC(C[C@@H]1NC(=O)[C@H]2N(C1=O)CCC2)C,-2.041758384,0.7886,210.273
,C8563,SZLXDDJXOGZPON-RZWQWLLSSA-N,CCN(CCOC(=O)c1ccc(cc1Cl)N)CC.Cl,-0.830386564,3.804,307.216
,C8036,SZLZWPPUNLXJEA-QEGASFHISA-N,COCCN(C(=O)c1cc(OC)c(c(c1)OC)OC)CCOC,-1.32192358,1.4474,327.373
,C2290,SZMWFUBOZRDQPO-UHFFFAOYSA-N,CSc1ccc(cc1)C(=O)CN1CC[C@@]23[C@H]([C@H]1Cc1c3cc(cc1)O)CCCC2.Cl,-6.252960633,5.7953,444.029
,C2340,SZMZPHUVKHKNPE-UHFFFAOYSA-N,COc1ccc2c(c1)[nH]c1c2CCN2[C@@H]1C[C@H]1[C@@H](C2)C[C@H]([C@@H]([C@H]1C(=O)OC)OC)OC(=O)/C=C/c1cc(OC)c(c(c1)OC)OC,-6.124341143,4.5086,634.716
,C7657,SZORJUSWVVQOIR-UHFFFAOYSA-N,Cn1c2nc([nH]c2c(=O)n(c1=O)C)C1CC1,-1.621069788,-0.1623,220.228
,C7251,SZQIFWWUIBRPBZ-UHFFFAOYSA-N,[O-][N+](=O)c1ccc(nc1)OCCCCCNCCSS(=O)(=O)O,-1.92430188,3.6594,365.426
,C7293,SZTCVSWEXLJTPD-UHFFFAOYSA-N,COc1c(ccc(c1C)OC)CC(N)C.Cl,-1.893558559,3.4042,245.746
,C7715,SZXRJFXCKOFLMP-UHFFFAOYSA-M,CCN1C(=O)NC(C1=O)c1ccccc1,-1.587483488,1.5661,204.225
,C4049,SZYOCGSGLNKIQO-UHFFFAOYSA-N,S=c1[nH]c2ccccc2[nH]c2c1cccc2,-4.073645429,3.9409,226.297
,C5181,SZYWFOPNFNROQB-UHFFFAOYSA-N,Cn1c(=O)n(C)c2c(c1=O)[nH]cn2.COC(CNC(=O)NC(=O)CCC(=O)[O-])C[Hg].[Na+].O,-3.259142496,-1.9998,651.977
,C5315,TTWJBBZEZQICBI-UHFFFAOYSA-N,Nc1nc(cc2c1cccc2)c1ccccn1,-3.154857379,3.4602,221.257
,C239,TTWYZDPBDWHJOR-IDIVVRGQSA-L,Clc1cc(Cl)c2c(c1Cl)nsn2,-4.98,3.6515,239.51
,C666,TTZGKMBLWUVGJV-UHFFFAOYSA-N,CCN(CCNC(=O)c1cc(Cl)c(cc1OC)N)CC,-3.1800001,2.9745,299.796
,C9279,TUAMRELNJMMDMT-UHFFFAOYSA-N,O[C@@H]1[C@@H](COP(=O)(OP(=O)(OP(=O)(O)[O-])[O-])O)O[C@H]([C@@H]1O)n1cnc2c1ncnc2N.[Na+].[Na+],0.258734112,-0.1714,551.145
,C2078,TUAPYWSFEYRCLS-UHFFFAOYSA-M,[O-]S(=O)(=O)C.CC[NH+](CCn1nc2c3c1ccc(c3sc1c2ccc(c1)Cl)C)CC,-6.8743909,4.5329,468.032
,C1272,TUBNIQQVIOAZBQ-UNOMPAQXSA-N,Cc1cc(C)cc(c1)O,-1.4,2.009,122.164
,C3676,TUEJFGFQYKDAPM-UHFFFAOYSA-N,O=C(c1cc(ccc1C(=O)[O-])S(=O)(=O)Nc1nccs1)Nc1ccccc1.[Na+],-4.366355584,2.7865,425.414
,C5365,TUENCHQASOGYGU-UHFFFAOYSA-N,O=C(CN1CCN(CC1)Cc1ccccc1)N/N=C\c1ccc(o1)[N+](=O)[O-],-3.124234188,2.2456,371.39
,C8188,TUMNHQRORINJKE-UHFFFAOYSA-N,Cc1ccc(cc1)N(c1cccc(c1)O)CC1=NCCN1.Cl,-1.201147115,3.4068,317.813
,C7097,TUNFSRHWOTWDNC-UHFFFAOYSA-N,CCNc1nc(N2CCN(CC2)C)c(c(n1)Cl)SC,-2.037292721,2.1114,301.839
,C8991,TUQLBASXUYTTNN-UHFFFAOYSA-N,CCN(C(=O)N)CC,-0.231605698,1.1072,116.162
,C194,TUQVWHPFYRZAOJ-UHFFFAOYSA-N,CCCCCCCCCCCCCC(=O)O,-5.3299999,4.7721,228.371
,C6873,TUTHZCGVRIGJOK-HABIVSBTSA-N,CCCNC(=O)OCC(COC(=O)N)CC,-2.164614693,2.3353,232.277
,C5844,TUUUIDCCDQJUQA-UHFFFAOYSA-N,CCCCOc1ccc(cc1F)CC(=O)NO,-2.81900782,2.4434,241.259
,C2095,TUUUNXKJLMHVRJ-UHFFFAOYSA-N,OCCN1CCN(CC1)CC/C=C/1\c2cc(Cl)ccc2Sc2c1cc(Br)cc2.Cl.Cl,-6.828206792,6.4786,552.783
,C4461,TUYRLWDFXARPCV-UHFFFAOYSA-N,C(CCN1CSCC1)CCOc1ccc2c(n1)cccc2.Cl.Cl,-3.756212829,5.3321,375.356
,C3429,TUYUUFHIRZADJZ-UHFFFAOYSA-N,O=C(CC1CCCCC1)OCCCN1CCCCC1C,-4.600581121,3.7024,281.434
,C7602,TUZIOXPOHMWNKY-UHFFFAOYSA-N,CCN1C(=O)Cc2c(S1(=O)=O)cccc2,-1.662491836,1.7986,225.264
,C3671,TVDYTVXARUOWKL-XPUUQOCRSA-N,CCCc1ccc(cc1)C(c1ccccc1)OCC[NH+](C)C.[Cl-],-4.371328062,-0.1064,333.895
,C2785,TVHXQQJDMHKGGK-UHFFFAOYSA-N,CCCC1(CCN(C1)CCc1ccc(cc1)OC(=O)C)c1cccc(c1)OC(=O)C,-5.384394775,4.4614,409.518
,C1111,TVKWFYUSFZSPTC-UHFFFAOYSA-N,COC1=C(OC)C=C[C@@H]2[C@@H]1C(=O)OC2,-1.9,0.8498,196.2
,C7169,TVMXDCGIABBOFY-UHFFFAOYSA-N,FC(c1ccc(cc1)S(=O)(=O)N)(F)F,-1.981471596,3.1339,225.188
,C9590,TVOAVZLZJXCTGE-NXEZZACHSA-N,CC[N+](c1cccc(c1)O)(CC)CC.[Br-],0.561929382,-0.2368,274.197
,C206,TVOAVZLZJXCTGE-ZJUUUORDSA-N,CCCCCCCC,-5.2399998,3.3668,114.229
,C5601,TVOREWXXEDDJHQ-UHFFFAOYSA-M,ClCCN(C(=O)N[C@@H]1CCCC[C@H]1OC(=O)C)N=O,-2.97601053,2.1834,291.731
,C5538,TVQGDYNRXLTQAP-UHFFFAOYSA-N,ClCCN(C(=O)N[C@@H]1CCCC[C@@H]1OC(=O)C)N=O,-3.018757653,2.1834,291.731
,C9688,TVSIMAWGATVNGK-UHFFFAOYSA-N,CCOC(=O)C[N+](C)(C)C.[Br-],0.645672547,-2.7403,226.111
,C803,TVSPPYGAFOVROT-UHFFFAOYSA-N,CCCCCCC(=O)OCC,-2.71,2.5199,158.238
,C8034,TVYLLZQTGLZFBW-ZBFHGGJFSA-N,COc1cc(OC)c(cc1CC(N)C)OC,-1.323354263,2.3024,225.284
,C7089,TVZCRIROJQEVOT-CABCVRRESA-N,CCC(C(=O)O)Oc1ccccc1,-2.041978717,1.9286,180.2
,C6574,TVZGACDUOSZQKY-UHFFFAOYSA-N,COc1cccc(c1)[C@@]1(O)CCCC[C@@H]1CN(C)C,-2.359509135,2.6346,263.375
,C5537,TWAWHTJKASJPEK-UHFFFAOYSA-J,N#Cc1ccc2c(c1)[C@@H](N1CCCC1=O)[C@@H](C(O2)(C)C)O,-3.018959319,1.69158,286.326
,C6884,TWAYYLLFOQXVJV-UHFFFAOYSA-N,OC(=O)CCC(C(=O)O)NC(=O)c1ccc(cc1)NCc1cnc2c(n1)c(N)nc(n2)N,-2.161851466,1.8704,440.413
,C8984,TWBYWOBDOCUKOW-UHFFFAOYSA-N,[O-]C(=O)CN(CC(=O)[O-])CCN(CC(=O)[O-])CC(=O)[O-].[Co+2].[Co+2],-0.250674614,-7.41,406.077
,C6150,TWCFVUDIMLCADK-UHFFFAOYSA-N,COc1ccc(cc1)N1CCC(C1=O)N1CCCC1,-2.626660797,1.8992,260.332
,C7985,TWCGUXQAABROHJ-UHFFFAOYSA-M,OC(=O)c1ccncc1,-1.374293515,0.7798,123.109
,C6792,TWFMXSDQDOHDBM-UHFFFAOYSA-N,CN(CCN1C(=O)CCCc2c1cccc2)C,-2.219971649,1.9825,232.321
,C7591,TWFQJFPTTMIETC-UHFFFAOYSA-N,[O-]C(=O)c1nnn(c1C)c1ccccc1.[Na+],-1.673107704,-0.0608,225.179
,C4658,TWIULPUWWRMHGV-UHFFFAOYSA-N,CCCCNC(=O)OCC(C(C)C)(COC(=O)N)C,-3.633501683,3.3615,274.357
,C6514,TWJRTPKEHPDDPG-UHFFFAOYSA-N,CCCCCCCCCCCCN.Cl,-2.398700351,5.3683,221.81
,C8736,TWKAWBNRBUPTMA-UHFFFAOYSA-N,Clc1ccc(nc1)OCCNCCSS(=O)(=O)O,-0.599268395,2.7111,312.794
,C7182,TWLNPRLUHNFDCS-UHFFFAOYSA-N,NNc1ccnc2c1ccc(c2)Cl,-1.971011272,2.9471,193.633
,C8101,TWLUQYYWLRMIFH-UHFFFAOYSA-N,CN1CC2CCC(C1)N2C(=O)CC(=O)O,-1.269940781,-0.3581,212.246
,C2269,TWSRVQVEYJNFKQ-UHFFFAOYSA-N,OC(=O)C(=O)[O-].CC[NH+](CCn1c2cc(Cl)ccc2c2c1cc(OC)cc2)CC,-6.297832757,1.2021,420.887
,C4199,TWTOBQHCWWWHCI-UHFFFAOYSA-N,CCCNC(c1ccccc1)Cc1ccccc1.Cl,-3.964954582,5.1629,275.816
,C1311,TWUSOZWGHHLYHF-UHFFFAOYSA-N,CCCCCOC(=O)CC,-1.28,2.1298,144.211
,C6012,TWXDDNPPQUTEOV-FVGYRXGTSA-N,CCCCCCC(COC(=O)N)COC(=O)N,-2.707529641,3.1642,246.303
,C5795,TWXDDNPPQUTEOV-SBSPUUFOSA-N,OC(CN1CCC(CC1)(O)c1ccccc1)COc1cccc(c1)C(=O)C,-2.853238842,2.5504,369.454
,C9121,TWXDDNPPQUTEOV-UHFFFAOYSA-N,CN[C@H](Cc1ccccc1)C.Cl,0.007661571,3.0299,185.694
,C8233,TXBGGFAHWDCORU-UHFFFAOYSA-M,CN[C@@H](Cc1ccccc1)C.Cl,-1.144948593,3.0299,185.694
,C8232,TXCDCPKCNAJMEE-UHFFFAOYSA-N,CNC(Cc1ccccc1)C.Cl,-1.144948593,3.0299,185.694
,C9545,TXCGAZHTZHNUAI-UHFFFAOYSA-N,CC(=O)Oc1cccc(c1)[N+](C)(C)C.[I-],0.493281269,-1.1874,321.155
,C312,TXCTURVQEPLVTE-UHFFFAOYSA-N,c1ccc2c(c1)oc1c2cccc1,-4.5999999,3.586,168.191
,C6248,TXEGJMKARLVHJF-UHFFFAOYSA-N,OC(=O)C(Oc1ccc(cc1)Cl)(C)C,-2.566424847,2.582,214.646
,C6017,TXFLRWLXYPVPIQ-UHFFFAOYSA-N,ONC(=O)Cc1ccc(cc1)C(C)(C)C,-2.703758856,2.4229,207.269
,C3746,TXFPEBPIARQUIG-UHFFFAOYSA-N,N#CC(=NNc1ccc(cc1C)[N+](=O)[O-])C#N,-4.294259757,2.31446,229.195
,C3387,TXIBUQJIDAECIO-UHFFFAOYSA-N,CN(CCCn1c(=O)c2ccccc2[nH]c2c1cccc2)C,-4.641729997,2.9967,295.379
,C8240,TXMIBOAQLCETRU-UHFFFAOYSA-N,CC(=O)c1ccc(cc1)O,-1.138382419,1.5948,136.148
,C2338,TXNPKAZVKAHXGK-UHFFFAOYSA-N,COc1ccc2c(c1)n(CC[NH+]1CCCC1)c1c2ccc(c1)Cl.[Cl-],-6.12807839,1.7084,365.297
,C2450,TXNREHWFZSEYKZ-UHFFFAOYSA-M,OCC(C(=O)O)(C(=O)O)CC(=O)[O-].CC[NH+](CCOC(=O)n1c2ccccc2c2c1cccc2)CC,-5.912278227,-0.0218,502.514
,C2610,TXRVDQMSXQKAPG-UHFFFAOYSA-N,OC(=O)C(c1ccc2c(c1)nc(o2)c1ccc(cc1)C(C)(C)C)C,-5.642261784,4.9804,323.386
,C9522,TXSYVXMEIWQHCF-UHFFFAOYSA-N,O=C(c1ccccc1)Oc1cccc(c1)[N+](C)(C)C.[Br-],0.446030423,0.1065,336.224
,C3506,TXTDSKOBDLHVMR-UHFFFAOYSA-N,N#Cc1c(Cl)c(Cl)c(c(c1Cl)Cl)C#N,-4.534859899,4.04356,265.911
,C3092,TXTORVZCRUFBBO-BYPYZUCNSA-N,NC(=O)C(c1ccccc1)(CCN1CCCCC1)CCN1CCCCC1,-5.000658837,3.7378,357.533
,C6494,TXVGQCHMEAUKDG-YGICXTQQSA-N,ClC(C(F)F)C(F)F,-2.417116931,2.124,150.503
,C812,TXVHTIQJNYSSKO-UHFFFAOYSA-N,C[C@@H](C(Cl)(C)C)Cl,-2.6900001,2.6311,141.039
,C2131,TXXWBTOATXBWDR-UHFFFAOYSA-N,Oc1ccc2c(c1)[C@]13CCCC[C@H]3[C@@H](C2)N(CC1)CCC1=CCCCC1.Cl,-6.725499911,6.081,387.986