Name,Compound ID,InChIKey,SMILES,logS,logP,MW
,C7631,GIVYEEPCHMGCEK-UHFFFAOYSA-N,CC/C(=C/C)/C(=O)NC(=O)NC(=O)C,-1.638187011,1.4968,198.219
,C3866,GIWJDYFVKWAEOG-UHFFFAOYSA-L,Clc1ccc2c(c1)C(=NCC=N2)c1ccccc1,-4.193870327,2.7645,254.714
,C9516,GIXDPYOACOYPDO-UHFFFAOYSA-M,CN(CC[N+](C)(C)C)CC[N+](C)(C)C.[Br-].[Br-],0.439875672,-5.6614,363.176
,C9021,GIYAQDDTCWHPPL-UHFFFAOYSA-N,COS(=O)(=O)[O-].CCOP(=O)(SCC[N+](c1ccccc1)(C)C)C,-0.15742524,4.0199,399.463
,C3967,GIYXAJPCNFJEHY-UHFFFAOYSA-N,CCN(CCNC(=O)c1cc(Br)c(cc1OC)N)CC,-4.126944598,3.0836,344.247
,C4212,GIZKPGCNANMOKF-CZPWWGKQSA-N,CNCCC(c1ccccc1)Oc1ccc(cc1)C(F)(F)F.Cl,-3.954481218,5.6279,345.787
,C2382,GIZKPGCNANMOKF-VAVKUECISA-N,O[C@H]([C@H](C(=O)O)O)C(=O)O.COc1ccc2c(c1)[C@]13CCCC[C@H]3[C@@H](C2)N(CC1)CCc1ccccc1,-6.054766719,2.8116,511.607
,C2383,GJCOSYZMQJWQCA-UHFFFAOYSA-N,O[C@H]([C@H](C(=O)O)O)C(=O)O.COc1ccc2c(c1)[C@@]13CCCC[C@@H]3[C@H](C2)N(CC1)CCc1ccccc1,-6.054766719,2.8116,511.607
,C2883,GJDMTPFVCPFMQA-UHFFFAOYSA-N,c1ccc2c(c1)Oc1c(C2)cccc1,-5.252853031,3.3831,182.218
,C6461,GJFGPQLNCBQNPS-UHFFFAOYSA-N,C[NH+](C(CN1C(=O)C(C)Oc2c1cc(C)cc2)C)C.[Cl-],-2.437970083,-2.2891,298.808
,C2100,GJHSNEVFXQVOHR-UHFFFAOYSA-L,COc1cc2c(cc1OC)CCN(C2CCc1ccc(cc1)Cl)CC=C(C)C,-6.804055841,5.7933,399.954
,C3707,GJNMJOHYRWHJQB-UHFFFAOYSA-N,C[n+]1cccc(c1)OC(=O)N(CCCCCCN(C(=O)Oc1ccc[n+](c1)C)C)C.[Br-].[Br-],-4.342204221,-3.5346,576.322
,C2365,GJOHLWZHWQUKAU-UHFFFAOYSA-N,Clc1ccc(cc1)C(c1ccccc1)N1CCN(CC1)Cc1cccc(c1)C.Cl,-6.089268473,6.2334,427.409
,C5633,GJQMFLTWFFYRLD-VHEBQXMUSA-N,OP(=O)(O)O.OP(=O)(O)O.NCCCC(Nc1cc(OC)cc2c1nccc2)C,-2.953328798,1.6988,455.337
,C3344,GJQPMPFPNINLKP-UHFFFAOYSA-N,N#Cc1ccc(cc1)CN(/N=N/c1ccc(cc1)C(=O)O)C,-4.685980116,3.38718,294.308
,C4133,GJRQTCIYDGXPES-UHFFFAOYSA-N,Clc1cc(cc(c1Cl)S(=O)(=O)N)S(=O)(=O)N,-4.01704474,3.8504,305.159
,C1330,GJSURZIOUXUGAL-UHFFFAOYSA-N,CC(COC(=O)C)C,-1.21,1.2055,116.158
,C8153,GJTMNUHTYIJXTJ-UHFFFAOYSA-N,Clc1cccc(c1NC1=NCCN1)Cl,-1.229001749,2.2019,230.094
,C6579,GJTSLVYVRWSGKK-UHFFFAOYSA-N,COc1ccc2c(c1CN1CCOCC1)oc(c(c2=O)C)C,-2.358103811,2.1885,303.353
,C2492,GJVFBWCTGUSGDD-UHFFFAOYSA-L,Clc1ccc2c(c1)n(CC[NH+]1CCCC1)c1c2cccc1.[Cl-],-5.844156048,1.6998,335.271
,C9527,GJXXUHGUCBUXSL-UHFFFAOYSA-N,C[N+](CCCCC[N+](C)(C)C)(C)C.[Br-].[Br-],0.458212407,-4.4229,348.161
,C7640,GJXZNORUUOVBKP-UHFFFAOYSA-N,Nc1ccc2c(c1)[nH]c(=O)o2,-1.631180588,1.2845,150.135
,C9589,GJYXGIIWJFZCLN-UHFFFAOYSA-N,OS(=O)(=O)O.Cc1nccnc1N1CCCCC1,0.560157507,2.2683,275.325
,C1214,GKCBAIGFKIBETG-UHFFFAOYSA-N,CCCCC(=O)CC(=O)C,-1.5599999,1.7248,142.196
,C5106,GKDHNCOWIDRBOR-LSHSPPPCSA-N,CCCCNc1ccc(cc1)C(=O)OCCN(C)C,-3.305934924,2.69,264.363
,C4725,GKEGFOKQMZHVOW-UHFFFAOYSA-M,Oc1ccc2c(c1)[C@]13CCCC[C@H]3[C@@H](C2)N(CC1)CC(c1ccccc1)O.Cl,-3.58917826,4.9241,399.954
,C6887,GKEUODMJRFDLJY-UHFFFAOYSA-N,O=C(C(c1ccccc1)(c1ccccc1)O)OC1C[N+]2(C)CCC1CC2.[Br-],-2.158722244,-0.3327,432.351
,C211,GKHSEDFDYXZGCG-UHFFFAOYSA-N,Cc1cccc2c1Cc1c2cccc1,-5.2199998,3.5662,180.245
,C7901,GKJZVPXYCWSVCE-UHFFFAOYSA-N,N#CCc1ccccc1C#N,-1.451212485,1.62436,142.157
,C4756,GKOVMTHKJDWVMC-UHFFFAOYSA-N,ClCC[NH+](CCOc1cccc(c1)CC)CC.[Cl-],-3.570875932,-1.2246,292.245
,C4145,GKOYNKLWWVOIMC-UHFFFAOYSA-N,Cc1ccc2c(c1)c(C)cc(n2)OCCCCCNCCSS(=O)(=O)O,-4.008290811,4.998,398.54
,C5499,GKPKSLODPGIJAO-UHFFFAOYSA-N,N/C(=N\CCCCOc1ccccc1)/CSS(=O)(=O)O,-3.042083414,3.5199,318.412
,C7652,GKPOMITUDGXOSB-UHFFFAOYSA-N,CCN1C(C)(C)CCC1(C)C,-1.625281688,2.5972,155.28
,C9894,GKQGIQVSMCHAFX-IBEHDNSVSA-N,CC(C#C)O,0.900816235,0.0004,70.0898
,C6529,GKQHIYSTBXDYNQ-UHFFFAOYSA-M,OC[C@H]1O[C@@H](Oc2cc(C)ccc2C(C)C)[C@@H]([C@H]([C@@H]1O)O)O,-2.39188158,0.2971,312.358
,C7167,GKQLYSROISKDLL-UHFFFAOYSA-N,CCCCCCCCCCCC[n+]1ccccc1.[Cl-],-1.984793586,1.899,283.88
,C3982,GKQPCPXONLDCMU-CCEZHUSRSA-N,CCOC(=O)N1C(OCC)C=Cc2c1cccc2,-4.118132698,3.1039,247.29
,C2431,GKQYGRWQCWWSHN-UHFFFAOYSA-N,CCOC(=O)C1=C(C)NC(=C(C1c1ccccc1/C=C/C(=O)OC(C)(C)C)C(=O)OCC)C,-5.953272132,4.7313,455.543
,C2870,GKRZNOGGALENQJ-UHFFFAOYSA-N,O=C(Nc1ccc2c(c1)c(N)cc(n2)C)Nc1ccc2c(c1)c(N)cc(n2)C.Cl.Cl,-5.26130967,7.1206,445.345
,C1393,GKXJMIOXPSNPJS-CEWLAPEOSA-N,CC(=O)NC(=O)N,-0.89999998,0.2924,102.092
,C3712,GKZJUWWSFXZVHU-UHFFFAOYSA-N,CC(=CCN1CC[C@@]23[C@H]([C@H]1Cc1c3cc(cc1)O)CCCC2)C,-4.335052322,4.3547,311.461
,C6098,GLBIGEIFLNBBRY-UHFFFAOYSA-M,O=C(c1cccnc1)Nc1cccc(c1C)C.Cl,-2.660609344,3.8257,262.735
,C3908,GLDOVTGHNKAZLK-UHFFFAOYSA-N,C1CCC(CC1)C[N+]12CCCC(CC1)CC2.[Cl-],-4.170811167,0.5501,257.843
,C25,GLDQAMYCGOIJDV-UHFFFAOYSA-N,CCCCCCCCCCCCCCCCCCO,-8.3999996,6.2402,270.494
,C8624,GLEVLJDDWXEYCO-UHFFFAOYSA-N,OC(=O)c1cccc(c1O)O,-0.770888646,0.796,154.12
,C5435,GLFNDSLRJPGINC-YLFUTEQJSA-N,Cc1c2OC(C)(CCc2c(c(c1C)O)C)C(=O)O,-3.07830417,2.4857,250.29
,C3325,GLHXHBYDPQRLGS-UHFFFAOYSA-N,CCCCOc1c(OC)cccc1C(=O)OCCO/[NH+]=C/CCC.[Cl-],-4.699404651,-1.082,373.872
,C4398,GLJATYFHELDGEA-AATRIKPKSA-N,ClCC[NH+](Cc1ccccc1)CCOc1ccccc1OC.[Cl-],-3.805944769,-0.5981,356.287
,C5550,GLKVEFVFCAAAQK-UHFFFAOYSA-N,Clc1ccc(cc1)/C=C/[N+](=O)[O-],-3.014408426,3.1106,183.592
,C5797,GLQXWWOXSUHWEZ-UHFFFAOYSA-N,CCCC([NH+](CC)CC)CCC.[Cl-],-2.852233431,-1.1161,207.784
,C5401,GLSCRQYNOJCMSO-UHFFFAOYSA-N,OCCN(C(CC12CC3CC(C2)CC(C1)C3)C)C.Cl,-3.101264593,3.7075,287.869
,C4069,GLUUGHFHXGJENI-UHFFFAOYSA-N,CCC(=O)c1ccc(cc1)OCC(CN1CCN2C(C1)CCc1c2cccc1)O.Cl,-4.065076143,3.9609,430.968
,C1651,GLVAUDGFNGKCSF-UHFFFAOYSA-N,N1CCNCC1,1.0700001,-0.1632,86.1356
,C8921,GLYGDCUZVIJKRL-UHFFFAOYSA-N,S=c1nc[nH]c2c1[nH]cn2,-0.346779559,1.0155,152.177
,C4643,GLZPCOQZEFWAFX-JXMROGBWSA-N,CN1CCC(CC1)OC(=O)Nc1c(C)cccc1Cl,-3.645929417,3.302,282.766
,C904,GMBMAHMMQCNOGV-UHFFFAOYSA-N,OC/C=C(/CCC=C(C)C)\C,-2.46,2.6714,154.249
,C4435,GMCIKUIXWWYNKS-UHFFFAOYSA-N,CN(C1(CCCCC1)CNC(=O)c1ccccc1)C,-3.77512787,3.0718,260.375
,C4757,GMHKMTDVRCWUDX-UHFFFAOYSA-N,CCC(C(C)C)(COC(=O)N)COC(=O)NC(C)C,-3.570854873,3.3599,274.357
,C6773,GMHNYYKDPGWAJR-UHFFFAOYSA-N,CCC1(NC(=O)N(C1=O)C)c1ccccc1,-2.236189577,1.7402,218.252
,C3080,GMISKEUWHIRDNK-UHFFFAOYSA-N,O=C(c1ccccc1O)OCCCc1ccccc1,-5.010810275,3.1818,256.296
,C7328,GMKRJJQRDLKNHL-UHFFFAOYSA-N,O=C(C(Oc1ccccc1)(C)C)OCCN1CCOCC1,-1.865345362,1.6573,293.358
,C3391,GMNBUMFCZAZBQG-UHFFFAOYSA-N,CCC(c1ccccc1)C(=O)OCCCN1CCCCC1C,-4.637604256,3.9258,303.439
,C3923,GMQNYSMZUWAAIN-UHFFFAOYSA-L,CCC(C(c1ccccc1)(c1ccccc1)CC([NH+](C)C)C)O.[Cl-],-4.157672766,-0.3293,347.922
,C9119,GMRQFYUYWCNGIN-NKMMMXOESA-N,[O-]C(=O)c1n(C)c(C(=O)[O-])c(c(=O)c1I)I.[Na+].[Na+],0.006209415,-1.6785,492.902
,C1824,GMRUSNUZAOUIJR-UHFFFAOYSA-N,O[C@H]1C[C@H](O)C(=C)/C(=C\C=C\2/CCC[C@]3([C@H]2CC[C@@H]3[C@@H](CCCC(O)(C)C)C)C)/C1,-8.72489756,5.7047,416.636
,C4401,GMTRMRXFOWCLAM-GEEYTBSJSA-N,Cc1cc(OCCCCN2CSCC2)nc2c1cccc2.Cl.Cl,-3.804323428,5.2504,375.356
,C3204,GMUKQAHDARHRTC-UHFFFAOYSA-N,CC[NH+](CCOC(=O)/C=C/C(c1ccccc1)c1ccccc1)CC.[Cl-],-4.868629328,-0.1534,373.916
,C8902,GMVJKSNPLYBFSO-UHFFFAOYSA-N,S=C(Nc1ccccc1)NC(=S)N,-0.37114184,2.3808,211.307
,C235,GMXVMPBZOIMNDW-UHFFFAOYSA-N,Brc1c(Br)cccc1Br,-5.04,3.9741,314.8
,C4822,GMYDEDCMIQAOCT-UHFFFAOYSA-N,c1ccc(cc1)CNC1CCN(CC1)Cc1ccccc1.Cl.Cl,-3.526992431,5.3736,353.329
,C9814,GMYHTBNBDYNDAI-MWMYENNMSA-N,NCC(c1ccccc1)O.Cl,0.760350223,2.181,173.64
,C8935,GMZHWOAPIKGZAJ-UHFFFAOYSA-N,Cn1ccn(/c/1=C\[NH+]=O)COC1CCCCC1.[Cl-],-0.325773038,-2.9965,273.759
,C5113,GMZVRMREEHBGGF-UHFFFAOYSA-N,CC([NH2+]/C(=N/C(=N/c1ccc(cc1)Cl)/N)/N)C.[O-]C(=O)C,-3.303508979,0.7295,313.783
,C8989,GNBVPFITFYNRCN-UHFFFAOYSA-M,NC(=O)CN1CCCC1=O,-0.23374554,-0.2677,142.156
,C9906,GNBXJURZZRJOAT-UHFFFAOYSA-N,[O-]C(=O)CS.[Na+],0.942737194,-1.3339,114.099
,C7483,GNDPAVKYAUIVEB-NTEUORMPSA-N,SC/C(=N\C12CC3CC(C2)CC(C1)C3)/N.Cl.O,-1.750748302,3.6802,278.842
,C4553,GNDQRLWDVIQPMI-UHFFFAOYSA-L,O=C(c1ccncc1)N/N=C(/c1ccco1)\C,-3.693770525,2.2195,229.235
,C3696,GNFSPFYMMKMHOG-UHFFFAOYSA-N,C[N+]1(CCCCCC[N+]2(C)CCCC2)CCCC1.[Br-].[Br-],-4.352465651,-3.0468,414.263
,C3038,GNFVFPBRMLIKIM-UHFFFAOYSA-N,CN(CCC(c1cccc2c1cccc2)(C(=O)N)CC=C(C)C)C,-5.064013827,4.5712,324.46
,C9307,GNHMRTZZNHZDDM-UHFFFAOYSA-N,FCC#N,0.278049614,0.47948,59.0424
,C1520,GNMJFQWRASXXMS-UHFFFAOYSA-M,ClCCC#N,-0.28999999,1.13888,89.5236
,C9720,GNOGSFBXBWBTIG-UHFFFAOYSA-N,C[N+](c1ccccc1)(C)C.[Br-],0.665301042,-1.1127,216.118
,C6134,GNUXVOXXWGNPIV-UHFFFAOYSA-N,CC(=O)Nc1c(I)cc(c(c1I)C(=O)O)I,-2.638539181,3.23,556.862
,C3035,GNVHKORFQWXVQW-WBPXWQEISA-L,CC(N(Cc1c(C(C)C)c(=O)n(n1C)c1ccccc1)C)Cc1ccccc1,-5.067751258,4.3624,377.522
,C9288,GNWFVFIRKIFSPN-UHFFFAOYSA-N,[O-]C(=O)[C@@H]([C@H](C(=O)O)O)O.[O-]C(=O)[C@@H]([C@H](C(=O)O)O)O.CC[N+](CCOCC[N+](CC)(CC)CC)(C)C,0.263926374,-4.9388,544.59
,C3181,GNXFOGHNGIVQEH-QMMMGPOBSA-N,O=C(Nc1c(C)cccc1C)OC1CCCN(C1)C(C)(C)C,-4.883610068,4.1257,304.427
,C1376,GNXFOGHNGIVQEH-UHFFFAOYSA-N,COc1ccccc1OC[C@@H](COC(=O)N)O,-0.99000001,1.2305,241.241
,C7802,GNYKORXUSBCNSG-UHFFFAOYSA-N,COc1ccccc1OCC(COC(=O)N)O,-1.525122224,1.2305,241.241
,C3641,GNZBHOOZDKNFTO-XMLTWROESA-M,COc1ccc(cc1)C(N1CCCCC1)CC(=O)c1ccccc1.Cl,-4.394806616,5.2351,359.89
,C8133,GOATZYAVXMPVQD-UHFFFAOYSA-N,CC[C@@H]([C@@H]1NC(=O)C(=C1[O-])C(=O)C)C.[Na+],-1.243962236,1.1333,219.213
,C1730,GOAXEHDWLMGWIV-UHFFFAOYSA-N,Brc1cnc(c(c1)Br)OCCCCCNCCSSCCNCCCCCOc1ncc(cc1Br)Br.Cl.Cl,-12.00111017,10.2714,867.22
,C8459,GOEMGAFJFRBGGG-UHFFFAOYSA-N,COc1cc(CC(N)C)cc(c1OC)OC.Cl,-0.93500647,3.1044,261.745
,C5373,GOFIUEUUROFVMA-UHFFFAOYSA-N,CCCC(=O)Nc1ccc(c(c1)C(=O)C)OCC(CNC(C)C)O,-3.113597546,2.8294,336.426
,C7350,GOGYHVOOMHFPAC-UHFFFAOYSA-N,CC(=O)c1ccc2c(c1)cc[nH]2,-1.843975479,2.3705,159.185
,C8068,GOHBXWHNJHENRX-UHFFFAOYSA-N,CCCCN(c1ccccc1)C(=O)N,-1.297121699,3.0721,192.258
,C103,GOIQOQCNFWYSTQ-UHFFFAOYSA-N,Cc1cc2ccccc2c2c1c1ccccc1cc2,-6.5900002,5.4546,242.314
,C2178,GOLGILSVWFKZRQ-UHFFFAOYSA-N,CCC(C(=O)O)Cc1c(I)cc(c(c1I)O)I,-6.549162006,3.8593,571.917
,C5752,GOLSFPMYASLXJC-UHFFFAOYSA-N,Ic1ccc(c(c1)C(=O)O)N,-2.878183123,2.1528,263.033
,C9836,GOOCRIHPADOQAS-ZNUXJMJHSA-N,CN(CCOC(=O)C)C,0.789022462,0.1111,131.173
,C7960,GOOHAUXETOMSMM-GSVOUGTGSA-N,OS(=O)(=O)O.O=C1C[C@@H]2OCC=C3[C@H]4[C@@H]2[C@@H]2N1c1ccccc1[C@]12CCN([C@H]1C4)C3.O=C1C[C@@H]2OCC=C3[C@H]4[C@@H]2[C@@H]2N1c1ccccc1[C@]12CCN([C@H]1C4)C3,-1.407623129,4.6188,766.902
,C1473,GOPWOUQJIMLDDM-UHFFFAOYSA-N,C[C@@H]1CO1,-0.58999997,0.4051,58.0791
,C3205,GOYJQKVVEOIVCJ-UHFFFAOYSA-N,CCCCOC(=O)c1cccc(c1)C(=O)OCCCC,-4.868477195,3.6004,278.343
,C6395,GOZBHBFUQHMKQB-UHFFFAOYSA-N,COc1cc2oc(nc2cc1Cl)N,-2.481088525,2.6532,198.606
,C5446,GOZDTZWAMGHLDY-UHFFFAOYSA-L,CCN(CC(=O)Nc1c(C)cc(cc1C)C)CC,-3.07019964,2.9651,248.364
,C6410,GPDXFYPVHRESMA-UHFFFAOYSA-N,[O-]S(=O)(=O)Oc1ccc(cc1)C(c1ccccn1)c1ccc(cc1)OS(=O)(=O)[O-].[Na+].[Na+],-2.468458309,4.1014,481.407
,C8422,GPFAJKDEDBRFOS-FKQDBXSBSA-N,Oc1cc(C(=O)O)c(cc1O)O,-0.958913768,0.5016,170.12
,C8066,GPHZIQJSCSATJL-UHFFFAOYSA-N,CN1CC[C@@]23[C@@H]4[C@H]1Cc1c3c(O[C@H]2[C@H](C=C4)O)c(cc1)OCCN1CCOCC1,-1.299401589,1.0793,398.495
,C6458,GPKJTRJOBQGKQK-UHFFFAOYSA-N,[O-][N+](=O)c1cn(c(n1)C)CCCl,-2.439616821,1.8617,189.6
,C2013,GPLGAQQQNWMVMM-MYAJQUOBSA-N,CCN(CCCC(Nc1c2cc(OC)ccc2nc2c1ccc(c2)Cl)C)CC,-7.131315398,6.0454,399.957
,C2743,GPMXUUPHFNMNDH-UHFFFAOYSA-N,CN([C@H]1CC[C@]2(C(=CC[C@@H]3[C@@H]2CC[C@]24[C@H]3CC[C@@H]4[C@@H](N(C2)C)C)C1)C)C,-5.446668706,4.7475,356.588
,C3057,GPRYKVSEZCQIHD-UHFFFAOYSA-N,Fc1ccc(cc1)C(=O)CCCN1CCC(CC1)(O)c1cccc(c1)C(F)(F)F,-5.035142361,4.7289,409.417
,C1194,GPSDUZXPYCFOSQ-UHFFFAOYSA-N,CC(=O)c1ccc(cc1)N,-1.61,2.0526,135.163
,C1024,GPTONYMQFTZPKC-UHFFFAOYSA-N,Cc1cccc(c1)C(=O)O,-2.1400001,1.6932,136.148
,C860,GPTQBJOBBYXFDM-UHFFFAOYSA-N,COc1cnc(nc1)NS(=O)(=O)c1ccc(cc1)N,-2.5799999,2.6032,280.303
,C6171,GPTXWRGISTZRIO-UHFFFAOYSA-N,CCC(C(COC(=O)N)(COC(=O)N)CC)C,-2.6126023,3.0201,246.303
,C5196,GPVHXPLPRPJTMZ-UHFFFAOYSA-N,Cc1ccc2c(n1)c(O)c(cc2Cl)Cl,-3.244462839,3.5556,228.075
,C3548,GPVICVVBHHEQLV-UHFFFAOYSA-N,Clc1ccc(cc1)C(=O)N1CC=Cc2c1cccc2,-4.483002412,4.0786,269.726
,C4592,GPWXGAXWESIXQU-UHFFFAOYSA-N,CCN(CCn1c(=O)n(c2ccccc2)c(=O)c2c1cccc2)CC.Cl,-3.66964342,3.2962,373.876
,C3268,GPXLMGHLHQJAGZ-JTDSTZFVSA-N,OS(=O)(=O)O.O=C(C(c1ccccc1)c1ccccc1)OC1CN2CCC1CC2.O=C(C(c1ccccc1)c1ccccc1)OC1CN2CCC1CC2.O.O,-4.773117315,7.087,776.935
,C2734,GPYLCFQEKPUWLD-UHFFFAOYSA-N,CCOc1ccc2c(c1C(=O)N[C@@H]1C(=O)N3[C@@H]1SC([C@@H]3C(=O)O)(C)C)cccc2,-5.456131396,2.8126,414.475
,C5047,GQBBRMZCLIBJIM-UHFFFAOYSA-N,O=c1[nH]c2c3c1cccc3ccc2,-3.349260842,2.1191,169.179
,C4237,GQGPESHGTUQISM-UHFFFAOYSA-N,CCN1CCCC(C1)OC(=O)Nc1c(C)cccc1C,-3.936356634,3.3471,276.374
,C3219,GQKINSNJXWWLPV-UHFFFAOYSA-N,[O-][N+](=O)O.[O-][N+](=O)O.CCCCN1CCN(CC1(C)C(=O)Nc1ccccc1)CCCC,-4.846170101,3.9014,457.521
,C5840,GQKJIYAQMYZWPY-UHFFFAOYSA-N,OCCC1C2CCN(C1CNC(CCCN(CC)CC)C)CC2,-2.820640577,2.5081,325.532
,C8268,GQLHUUBKEQARIM-UHFFFAOYSA-N,Clc1ccc(nc1)OCCCNCCSS(=O)(=O)O,-1.119843656,3.1012,326.82
,C6438,GQNDSZHIIJWNTO-UHFFFAOYSA-N,Clc1ccc2c(c1)CONC2,-2.452745149,2.2036,169.608
,C3160,GQSGZTBDVNUIQS-DGCLKSJQSA-N,COc1c(OC)ccc2c1CC[NH+](C2CCc1ccc(cc1)Cl)C.[Cl-],-4.912186855,1.6751,382.324
,C3995,GQUAGNLRQXBIPW-UHFFFAOYSA-N,C[C@@H]1C[C@@H](OC(=O)c2cccnc2)CC(C1)(C)C,-4.113623901,3.4532,247.333
,C2917,GQVUYVZMHLQIRT-UHFFFAOYSA-N,CCC(C(=O)c1cc(C)c(c(c1)C(=O)O)O)c1ccccc1,-5.205195644,3.7753,298.333
,C2811,GQWNECFJGBQMBO-UHFFFAOYSA-N,O=C1CCC2(C(=S)N1)c1ccccc1CCc1c2cccc1,-5.338500305,3.6375,307.409
,C6889,GQXCKOFQLIXWQR-UHFFFAOYSA-M,CCc1c(C)[nH]c2c1C(=O)C(CC2)CN1CCOCC1.Cl,-2.156863021,2.7027,312.835
,C4372,GQYIWUVLTXOXAJ-UHFFFAOYSA-N,Brc1ccc(nc1)OCCCCC[N+]1(C)CSCC1.[Cl-],-3.826674731,0.5069,381.759
,C5088,GRAOWBQCLZIQIW-UHFFFAOYSA-N,ClCCN(C(=O)NC1CCCCC1)N=O,-3.322156115,2.6418,233.695
,C8578,GRAVEXLOHIMHAF-UHFFFAOYSA-M,OCC(COc1ccc(cc1)NC(=O)C)O,-0.814834136,0.45,225.241
,C6178,GRFNBEZIAWKNCO-UHFFFAOYSA-N,[O-]C(=O)C(c1cccc2c1cccc2)Cc1ccccn1.[K+],-2.607899978,2.311,315.408
,C1491,GRKZBWJKCYATKH-UHFFFAOYSA-N,Oc1cccnc1,-0.46000001,0.7872,95.0993
,C9020,GRPHSFSJUDRMKP-UHFFFAOYSA-N,COP(=O)(CCOC(=O)C)OC,-0.159025071,1.0354,196.138
,C8760,GRPRVIYRYGLIJU-UHFFFAOYSA-N,CCOP(=O)(SCCN(C)C)OCC,-0.568284528,2.4623,241.288
,C6964,GRPWOXJJPTXYQU-UHFFFAOYSA-N,CCSCCSP(=O)(OCC)OCC,-2.111146513,3.6538,258.338
,C5944,GRRNUXAQVGOGFE-XKIAHZFYSA-N,CC(CCN1CCN2C(C1)CCc1c2cccc1)(O)C,-2.752655014,2.2873,274.401
,C9306,GRSWUWHHCZUOOV-UHFFFAOYSA-N,OC[C@H]1O[C@@H](O[C@@H]2[C@@H](O)[C@H](N)C[C@@H]([C@H]2O)NC)[C@@H]2[C@H]([C@H]1O)O[C@@]1(O2)O[C@H]([C@@H](CO)N)[C@@H]([C@@H]([C@H]1O)O)O,0.277757785,-5.4791,527.52
,C7261,GRTOGORTSDXSFK-XJTZBENFSA-N,CC[NH2+]CC(COc1c2oc(cc2c(c2c1occc2=O)O)C)O.[Cl-],-1.919604547,-2.1198,369.797
,C4316,GRVMJKAAXNELJW-UHFFFAOYSA-N,COC(=O)C1=CO[C@H]([C@@H]2[C@@H]1C[C@@H]1N(C2)CCc2c1[nH]c1c2cccc1)C,-3.862860992,3.1167,352.427
,C8410,GRVZGPLWLJJPKF-UHFFFAOYSA-N,CCC(c1ccccc1)N.Cl,-0.972238258,3.5987,171.667
,C2085,GRXKLBBBQUKJJZ-UHFFFAOYSA-N,CCCC(=O)c1ccc2c(c1)N(CCCN(C)C)c1c(S2)cccc1,-6.852401585,5.2888,354.509
,C8452,GSASOFRDSIKDSN-UHFFFAOYSA-N,CC(C(C)(C)C)OP(=O)(F)C,-0.938269483,3.23,182.173
,C5733,GSDSWSVVBLHKDQ-UHFFFAOYSA-N,OC(=O)c1ccc(nc1)SSc1ccc(cn1)C(=O)O,-2.893513913,2.6724,308.333
,C8280,GSDXPNOJFAITBE-UHFFFAOYSA-N,CN1CCN(CC1)c1c(F)cc2c3c1OCC(n3cc(c2=O)C(=O)O)C,-1.106783532,1.5469,361.368
,C5528,GSHPGFRNQUDFLK-UHFFFAOYSA-L,COc1ccc(cc1)CN(c1nccs1)CCN(C)C.Cl,-3.021548411,3.5219,327.873
,C9416,GSLWSSUWNCJILM-UHFFFAOYSA-N,C[N+](CCOCC[N+](C)(C)C)(C)C.[I-].[I-],0.352480102,-5.5766,444.135
,C4585,GSMFFPAGZVRAPY-VLSXRWFESA-N,ClCCN(Cc1ccccc1)Cc1ccccc1,-3.673449115,3.9276,259.774
,C1729,GSNOZLZNQMLSKJ-UHFFFAOYSA-N,CCCCCCCC[NH+](C(=N)c1ccc(c2c1cccc2)OCCCC)CCCCCCCC.[Cl-],-12.05632873,5.0537,503.202
,C6814,GSUNXHODQPCMLL-UHFFFAOYSA-N,CCN(c1cc(C)nc2n1ncn2)CC,-2.198037607,1.2789,205.26
,C5056,GSYJYMHUFBKDCU-UHFFFAOYSA-N,ClCCN(C(=O)NC1CCC(CC1)COC(=O)C)N=O,-3.342989783,2.431,305.758
,C7009,GTCAXTIRRLKXRU-UHFFFAOYSA-N,COc1cc(cc(c1OC)OC)C(=O)N1CCCC1,-2.083307851,1.8863,265.305
,C1641,GTEXBOVBADJOQH-FWEMWIAWSA-N,COC(=O)N,0.97000003,0.4118,75.0666
,C5794,GTIWCKXKQGMMQZ-UHFFFAOYSA-N,COC1=CC(=O)O[C@H](C1)/C=C/c1ccc2c(c1)OCO2,-2.853963361,2.2743,274.269
,C9581,GTKDEBRRAOOCCY-UHFFFAOYSA-N,NCCc1cccc(c1)O.Cl,0.550635387,2.3957,173.64
,C2252,GTLUQRDIJWHQGF-UHFFFAOYSA-N,ClCCN(C(=O)NC1CCCCCCCCCCC1)N=O,-6.334620474,4.9824,317.855
,C789,GTPQRYRUWGEJBP-UHFFFAOYSA-N,S=c1[nH]cnc2c1nccn2,-2.77,1.0824,164.188
,C946,GTSKCZHMZXAPMP-UHFFFAOYSA-L,Sc1ncnc2c1nccn2,-2.3599999,0.7085,164.188
,C3479,GTVGGHQLKNCAMB-UHFFFAOYSA-N,COc1cc2c(cc1O)CCN(C2CCc1ccc(cc1)Cl)C.Cl,-4.553362136,4.9559,368.297
,C8821,GTWNJZNRBRCACB-UHFFFAOYSA-N,CC1C[N+]2(CCOCC[N+]34CCC(CC3)C(C4)C)CCC1CC2.[I-].[I-],-0.475125982,-3.3184,576.337
,C3882,GUAFOGOEJLSQBT-UHFFFAOYSA-N,N#CC(=NNc1ccc(c(c1)Cl)Cl)C#N,-4.185380518,2.88146,239.061
,C1826,GUAZPUYTLMUTMA-ZHACJKMWSA-N,OC(=O)c1cc2ccccc2c(c1O)Cc1c(O)c(cc2c1cccc2)C(=O)O.CCN(CCCC(Nc1cc(OC)cc2c1NCCC2)C)CC,-8.688584265,8.5781,707.854
,C6853,GUBGYTABKSRVRQ-QRZGKKJRSA-N,COc1cc2oc(=O)ccc2cc1OC,-2.174403277,1.8102,206.195
,C6192,GUBNMFJOJGDCEL-UHFFFAOYSA-N,CN(/N=N/c1ccc(cc1)C(=O)O)C,-2.600368403,1.9451,193.203
,C1528,GUCPYIYFQVTFSI-UHFFFAOYSA-N,OC[C@H]1O[C@@H](O)[C@@H]([C@H]([C@@H]1O[C@@H]1O[C@H](CO)[C@H]([C@@H]([C@H]1O)O)O)O)O,-0.23999999,-5.3972,342.296
,C9036,GUGOEEXESWIERI-UHFFFAOYSA-N,CCN(CCOC(=O)C1(CCCCC1)C1CCCCC1)CC.Cl,-0.141075837,5.2042,345.948
,C8344,GUHPRPJDBZHYCJ-UHFFFAOYSA-N,COc1ccc(cc1)C(=O)N,-1.038943177,1.4944,151.163
,C2139,GUIWMJZVPUIZPM-UHFFFAOYSA-M,OC(c1ccc(cc1)C(C)(C)C)CCCN1CCC(CC1)C(c1ccccc1)(c1ccccc1)O,-6.690025778,6.3837,471.673
,C5822,GUJKBBOGALTPCN-UHFFFAOYSA-N,OC(=O)C(c1ccc(s1)C(=O)c1ccccc1)C,-2.83501708,3.1672,260.308
,C9619,GULNIHOSWFYMRN-UHFFFAOYSA-N,CC(=O)CC[N+](C)(C)C.[I-],0.589872603,-2.3243,257.113
,C2701,GUONCCKKHBMVAF-UHFFFAOYSA-N,O=C(CN1CCN(CC1)CC=C(CCC=C(C)C)C)NN=Cc1ccc(o1)[N+](=O)[O-],-5.503395597,3.7381,417.502
,C6943,GUOSQNAUYHMCRU-UHFFFAOYSA-N,COc1ccc(cc1)CN(c1ncccn1)CCN(C)C,-2.126527395,2.0534,286.372
,C2992,GUPWKIBOCFKLBR-UHFFFAOYSA-M,CCCCOc1ccc(cc1)OCC(=O)N(c1cccc(c1)OC)CCN1CCOCC1.Cl,-5.119246832,4.3582,479.009
,C807,GUQATEKNKSDOJK-UHFFFAOYSA-N,NCCCCCCCCCCC(=O)O,-2.7,3.2409,201.306
,C1780,GURJIPMUZBHWOB-UHFFFAOYSA-L,CCOc1cc(C[N+]2(CCCCC2)CCOCCC2CCC3CC2C3(C)C)c(cc1OCC)Br.[Br-],-9.498385828,4.189,617.496
,C6698,GUSWHRCHZVQFKH-UHFFFAOYSA-N,CCCCCCCC(NCCSS(=O)(=O)O)C,-2.273491868,4.3327,283.451
,C9352,GUTINEQUFDFTSC-UHFFFAOYSA-N,C[N+](CCC[N+]1(C)CC2CCCC(C1)C2)(C)C.[I-].[I-],0.306058603,-3.6839,494.237
,C5973,GUVUOGQBMYCBQP-UHFFFAOYSA-N,CN1Cc2cc(Cl)ccc2CO1,-2.735038735,2.1549,183.635
,C2052,GUXHBMASAHGULD-SEYHBJAFSA-N,c1ccc2c(c1)C(NCC1CCC(=CC1)CNC1CCc3c1cccc3)CC2.Cl.Cl,-6.99464385,7.6529,445.468
,C7699,GUYKUDVQANANFT-UHFFFAOYSA-N,O=C1N(C)CCCN1C,-1.598600804,0.2495,128.172
,C6386,GUZOHLPBYOGINP-UHFFFAOYSA-N,CN([C@@H]1C(=O)C(=C([C@@]2([C@H]1C[C@H]1C(=C(O)c3c([C@H]1O)c(Cl)ccc3O)C2=O)O)O)C(=O)N)C,-2.486904883,0.8086,464.853
,C4406,GVAQGXFHYGHMRN-UHFFFAOYSA-N,COC(=O)c1c(C)ccc(c1OCC(=O)OC(CN(C)C)C)C(C)C,-3.801561902,2.7771,351.437
,C4861,GVEHAHIPWCDIMQ-UHFFFAOYSA-N,Nc1cnccc1N1CCN2C(C1)CCc1c2cccc1,-3.494946844,3.0164,280.368
,C7112,GVEINSAHFGPQIN-UHFFFAOYSA-N,COc1ccc(cc1)CCCCNCCSS(=O)(=O)O,-2.030164862,3.6152,319.44
,C4382,GVEPBJHOBDJJJI-UHFFFAOYSA-N,COc1cc(cc(c1OC)OC)C(=O)C(c1ccccc1)CN1CCCC1.Cl,-3.818154227,4.5146,405.915
,C3372,GVNWHCVWDRNXAZ-BTJKTKAUSA-N,CN1CCN(CC1)CC(=O)N1C(C)(C)CC(=CC1(C)C)c1ccccc1,-4.65989177,2.9206,355.517
,C145,GVOUFPWUYJWQSK-UHFFFAOYSA-N,c1ccc2c(c1)c1cccc3c1c2ccc3,-6,4.4872,202.251
,C8009,GVPOXPZELDAAGI-UHFFFAOYSA-N,OC(=O)/C=C\C(=O)O.CN(CCOC(c1ccccn1)c1ccc(cc1)Cl)C,-1.346997118,3.1144,406.86
,C2155,GVQDDKFXRUBBDY-UHFFFAOYSA-N,CC(=O)Oc1ccc(cc1)C(=C1CCCCC1)c1ccc(cc1)OC(=O)C,-6.62420966,5.3032,364.434
,C4497,GVSJHNWVRSBRMB-UHFFFAOYSA-M,CCCCOCCNc1ccc(cc1C(=O)N)Cl,-3.728600852,3.4408,270.755
,C5836,GVTLAVKAVSKBKK-UHFFFAOYSA-N,COc1nc(OC)ccc1Cc1cnc(nc1N)N,-2.822721928,1.8064,261.28
,C6703,GVVXPMORGFYVOO-ZDUSSCGKSA-N,[O-]S(=O)O.CCCCCCC=O.[Na+],-2.270754461,2.3599,218.246
,C9223,GVYLCNUFSHDAAW-DYXRAMCBSA-N,O=C(c1nccnc1)NCN1CCOCC1,0.175997452,-0.1751,222.244
,C4353,GWBBVOVXJZATQQ-UHFFFAOYSA-L,COc1c(OC)cc2c3c1c1cc(OC)c(cc1C[C@@H]3NCC2)O,-3.841846863,3.1567,327.374
,C94,GWBJKDRJBWUMFT-UHFFFAOYSA-N,Cl[C@]12C(Cl)(Cl)[C@@]3([C@@]4([C@@]1(Cl)[C@@]1([C@@]2(Cl)[C@]3([C@]4(C1(Cl)Cl)Cl)Cl)Cl)Cl)Cl,-6.8000002,6.223,545.543