Name,Compound ID,InChIKey,SMILES,logS,logP,MW
,C2787,AZLQWGYNKLHVJM-UHFFFAOYSA-N,Brc1cnc(c(c1)Br)OCCCCCCN1CSCC1.Cl,-5.382340555,5.292,460.655
,C4989,AZNVGKVGQKSOIC-UHFFFAOYSA-N,O=C(C(c1ccccc1)CN1CC=CC1)c1ccccc1.Cl,-3.39288383,4.2648,313.821
,C1008,AZOCECCLWFDTAP-IUCAKERBSA-N,CC(=C)[C@H]1CC[C@@H](C(=O)C1)C,-2.1800001,2.5678,152.233
,C1374,AZQWKYJCGOJGHM-UHFFFAOYSA-N,O=C1C=CC(=O)C=C1,-0.99000001,0.2506,108.095
,C3146,AZVASGSKQTWFCU-UHFFFAOYSA-N,CNCCCC1(CC(c2c1cccc2)C)c1ccccc1.Cl,-4.923187667,5.6724,315.88
,C2813,BAAURVHPYJEDOO-UHFFFAOYSA-N,ClCC[NH+](CCOc1ccc(cc1)C)CCOc1ccc(cc1)C.[Cl-],-5.334296713,-0.1111,384.34
,C7934,BABMCXWQNSQAOC-UHFFFAOYSA-M,C[Hg]Cl,-1.429925287,1.2708,251.078
,C8777,BADSZRMNXWLUKO-UHFFFAOYSA-N,Clc1c[nH]nc1,-0.551420346,1.0631,102.522
,C8744,BAFGPPSWVHCIPE-UHFFFAOYSA-N,OCCOc1ccccc1C(=O)N(C)C,-0.586655803,0.7595,209.242
,C6311,BAFQDKPJKOLXFZ-UHFFFAOYSA-N,COP(=O)(Oc1ccc(cc1)[N+](=O)[O-])OC,-2.529030955,2.8977,247.142
,C2514,BAINIUMDFURPJM-UHFFFAOYSA-N,O=c1[nH]c2c(n1CCCN1CCN(CC1)C(c1ccccc1)c1ccccc1)cccc2,-5.810177136,4.0027,426.553
,C9752,BALXUFOVQVENIU-GHXDPTCOSA-N,CN[C@@H]([C@H](c1ccccc1)O)C.Cl,0.695307021,2.5208,201.693
,C9173,BALXUFOVQVENIU-GNAZCLTHSA-N,CN[C@H]([C@@H](c1ccccc1)O)C.Cl,0.09324703,2.5208,201.693
,C8842,BALXUFOVQVENIU-KXNXZCPBSA-N,CN[C@H]([C@H](c1ccccc1)O)C.Cl,0.695307021,2.5208,201.693
,C8841,BALXUFOVQVENIU-SCYNACPDSA-N,CN[C@@H]([C@@H](c1ccccc1)O)C.Cl,-0.450386937,2.5208,201.693
,C9751,BALXUFOVQVENIU-UHFFFAOYSA-N,CNC(C(c1ccccc1)O)C.Cl,0.695307021,2.5208,201.693
,C4488,BAMSHZXIILXXOZ-UHFFFAOYSA-N,OCC(c1ccccc1)(c1ccccc1)COC(=O)NCC,-3.7342692,3.102,299.364
,C2163,BANLNYYTSYHBAP-UHFFFAOYSA-N,CCCCOC(=O)CC(=CC(=O)OCCCC)C(=O)OCCCC,-6.58275132,3.3328,342.427
,C4685,BANZVIZIJJNREP-UHFFFAOYSA-N,CCN(CCCOC(=O)C(c1ccccc1)(c1ccccc1)O)CC.Cl,-3.615017899,3.9996,377.905
,C1530,BAPJBEWLBFYGME-UHFFFAOYSA-N,COC(=O)C=C,-0.22,0.3454,86.0892
,C9004,BAQCROVBDNBEEB-UBYUBLNFSA-N,OC[C@H]1OC(O)[C@@H]([C@H]([C@@H]1O)O)NC(=O)c1c(I)c(NC(=O)C)c(c(c1I)N(C(=O)C)C)I,-0.198162028,0.4351,789.096
,C3443,BAQKJENAVQLANS-UHFFFAOYSA-N,CCC(c1ccccc1)C(=O)OCCN1CCOC(C1C)c1ccccc1,-4.587840875,4.1233,367.481
,C6650,BARXDSNMNYUFCZ-UHFFFAOYSA-N,Nc1ccc(cc1)C(=O)Nc1ccc(cn1)C,-2.3112134,2.8787,227.262
,C4601,BASJUFZPHMWLOH-UHFFFAOYSA-N,CCC(C1CCCC(C1)C)CNC(CSS(=O)(=O)O)C,-3.665410547,4.8247,323.515
,C7340,BAWQXMLVKPUULE-UHFFFAOYSA-N,NCC(=O)Nc1ccc(cc1)C(=O)O,-1.850952064,1.0553,194.187
,C1016,BAXOFTOLAUCFNW-UHFFFAOYSA-N,c1ccc2c(c1)[nH]nc2,-2.1600001,1.5629,118.136
,C1327,BAYAKMPRFGNNFW-UHFFFAOYSA-N,OC(C(C)C)C(C)C,-1.22,1.6593,116.201
,C1830,BAYNABZLZVULMV-UHFFFAOYSA-N,Clc1ccccc1CNCCCCCCCCCCCNCc1ccccc1Cl.Cl.Cl,-8.638013709,9.7695,508.395
,C1997,BAYSQTBAJQRACX-UHFFFAOYSA-N,CCCCCCCCCCCCOC(=O)c1ccc(cc1)O,-7.172486751,5.4699,306.44
,C3499,BBAOAXCNMFWVBH-UHFFFAOYSA-N,C=CCOc1ccc(cc1)C(=O)OCCCN1CCCCC1C,-4.539277252,3.6106,317.423
,C9037,BBAWQAHNHLAYFY-UHFFFAOYSA-N,CC(C(c1ccc(cc1)C)O)N.Cl,-0.137375644,2.8779,201.693
,C4916,BBAZDLONIUABKI-UHFFFAOYSA-N,C#CCN(CCCOc1ccc(cc1Cl)Cl)C.Cl,-3.444110953,4.1293,308.631
,C9691,BBDAGFIXKZCXAH-PJNBIRNISA-N,OC[C@H]1O[C@@H]2[C@H]([C@@H]1O)Oc1n2ccc(=N)n1,0.647423919,-1.5261,225.201
,C131,BBEAQIROQSPTKN-UHFFFAOYSA-N,c1cc2ccc3c4c2c(c1)ccc4ccc3,-6.1900001,4.584,202.251
,C2116,BBFQZRXNYIEMAW-UHFFFAOYSA-N,COc1cccc2c1cc([N+](=O)[O-])c1c2c2OCOc2cc1C(=O)O,-6.764096592,3.8599,341.272
,C8013,BBFYUPYFXSSMNV-HMGRVEAOSA-N,OC[C@H]1O[C@@H](Oc2cc(O)c3c(c2)oc(c(c3=O)O)c2ccc(c(c2)O)O)[C@@H]([C@H]([C@@H]1O)O)O,-1.346103344,-0.5389,464.376
,C5510,BBGKDYHZQOSNMU-UHFFFAOYSA-N,O1CCOC2CCCCC2OCCOCCOC2C(OCC1)CCCC2,-3.033309525,2.722,372.496
,C5258,BBIMHFSPNXQFAH-UHFFFAOYSA-N,CN(CCOC(c1ccccc1)(c1ccccc1)C)C,-3.197128236,3.5283,269.381
,C1138,BBMCTIGTTCKYKF-UHFFFAOYSA-N,CCCCCCCO,-1.8099999,1.9491,116.201
,C530,BBMMISOHGVCAMY-UHFFFAOYSA-N,O=C1N(C)c2ccccc2Oc2c1cccn2,-3.6700001,2.5289,226.231
,C1828,BBMULGJBVDDDNI-OWKLGTHSSA-N,CC[C@@H](C(=O)[C@H]([C@H]([C@@H](CCc1ccc(c(c1C(=O)O)O)C)C)O)C)[C@H]1O[C@](C[C@@H]1C)(CC)[C@H]1CC[C@]([C@@H](O1)C)(O)CC,-8.679420524,5.8422,590.788
,C8701,BBNGVMNBBLPZIR-UHFFFAOYSA-N,O=S1(=O)N=CNc2c1cccc2,-0.667033656,1.4835,182.2
,C4829,BBOPZOKILMKZKZ-UHFFFAOYSA-N,CN(CC=C(c1ccccc1C)c1ccccc1)C.Cl,-3.520117775,4.7903,287.827
,C6796,BBQDLDVSEDAYAA-AATRIKPKSA-N,OC(=O)/C=C/c1ccccc1[N+](=O)[O-],-2.217726838,2.2158,193.156
,C4615,BBSJPRAFZYZZGW-RMKNXTFCSA-N,O=C(/C=C/c1ccccn1)OCCN1CCN(CC1)c1ccc(cc1)Cl,-3.659227684,3.1165,371.861
,C7053,BBVQDWDBTWSGHQ-UHFFFAOYSA-N,Clc1nc2c(o1)cccc2,-2.05756996,2.4812,153.566
,C4847,BBWAQXBRCHTNQE-UHFFFAOYSA-N,[O-][N+](=O)O.CCCC1CNCCC1CCC(c1ccnc2c1cc(OC)cc2)O,-3.504181783,4.5871,405.488
,C718,BBXXLROWFHWFQY-UHFFFAOYSA-N,CCCCc1c(C)nc([nH]c1=O)NCC,-3.03,1.9257,209.288
,C719,BCBFWTQLNBHDAB-UHFFFAOYSA-N,CCCCc1c(C)nc(nc1O)NCC,-3.02,2.338,209.288
,C6635,BCCGKQFZUUQSEX-WBPXWQEISA-N,ClCC[NH+](CCOc1ccccc1OC)CC.[Cl-],-2.325651487,-1.7784,294.217
,C7899,BCEQKAQCUWUNML-UHFFFAOYSA-N,O[C@H]([C@H](C(=O)O)O)C(=O)O.O[C@H]([C@H](C(=O)O)O)C(=O)O.CC1N(C)CCOC1c1ccccc1,-1.45342971,-2.2291,491.443
,C5894,BCGWQEUPMDMJNV-UHFFFAOYSA-N,OC(=O)c1ccc(c(c1)C(=O)O)O,-2.783262617,0.7886,182.13
,C403,BCJMNZRQJAVDLD-CQRYIUNCSA-N,CN(CCCN1c2ccccc2CCc2c1cccc2)C,-4.1900001,3.94,280.407
,C8333,BCJQOGKTJLWKQB-UHFFFAOYSA-N,C/C=C\1/C[C@@H](C)[C@](O)(CO)C(=O)OCC2=CCN3[C@H]2[C@H](OC1=O)CC3,-1.05739082,0.1031,351.394
,C5406,BCKXLBQYZLBQEK-KVVVOXFISA-M,CSc1ccc(nc1)OCCCCCN1CSCC1.Cl.Cl,-3.098525631,4.9008,371.389
,C3271,BCKXMQIYWWTZDP-UHFFFAOYSA-N,CCCCCCCC/C=C\CCCCCCCC(=O)[O-].[Na+],-4.766761635,4.7738,304.443
,C8372,BCLVKHGKEGFPJV-UHFFFAOYSA-N,CNC(=O)c1ccccc1O,-1.006264951,1.1427,151.163
,C7504,BCMCBBGGLRIHSE-UHFFFAOYSA-N,CCOc1ccc(cc1O)C=O,-1.733429899,1.6034,166.174
,C1340,BCNBYGOPXQXENY-UHFFFAOYSA-N,c1ccc2c(c1)ocn2,-1.16,1.8278,119.121
,C4845,BCPNATPABYLXNW-ZHACJKMWSA-N,CNCCCC12CC3CC(C2)CC(C1)C3.Cl,-3.505682889,4.3953,243.816
,C6603,BCPWSYQGYBTINM-DTCMKFPYSA-N,CN(/N=N/c1cccc(c1)C(=O)O)C,-2.34416146,1.9451,193.203
,C4045,BCQMBFHBDZVHKU-UHFFFAOYSA-N,CCCCCC/C=C\[N+](=N\[C@H]([C@@H](O)C)COC)\[O-],-4.075768904,3.352,258.357
,C648,BCQZXOMGPXTTIC-SFOWXEAESA-N,CCNc1nc(OC)nc(n1)NC(C)(C)C,-3.24,1.6684,225.291
,C1166,BCQZXOMGPXTTIC-UHFFFAOYSA-N,Cl[C@@H](C(F)(F)F)Br,-1.71,2.5085,197.382
,C7576,BCVXYGJCDZPKGV-UHFFFAOYSA-N,ClC(C(F)(F)F)Br,-1.685706535,2.5085,197.382
,C6138,BCXCABRDBBWWGY-UHFFFAOYSA-N,CC(=O)NC12CC3CC(C2)CC(C1)C3,-2.63590184,2.4822,193.285
,C9150,BCXHDORHMMZBBZ-DORFAMGDSA-N,CN(Cc1ccccc1)CC#C.Cl,0.064457224,2.5536,195.689
,C8017,BCYSNOFYSIJRNM-FGZKHVCBSA-N,OS(=O)(=O)O.COc1ccc2c3c1O[C@@H]1[C@@]43CCN([C@H](C2)[C@@H]4C=C[C@@H]1O)C.COc1ccc2c3c1O[C@@H]1[C@@]43CCN([C@H](C2)[C@@H]4C=C[C@@H]1O)C,-1.337965649,3.306,696.807
,C9163,BCZFSDNVXODRAJ-JTTNIQEDSA-N,OCC([C@H](C(=O)NCCC(=O)O)O)(C)C.OC[C@@H]1O[C@@H](O[C@H]2[C@H](O[C@H]3[C@H](O)[C@@H](O)[C@@H]([C@H]([C@@H]3N=C(N)N)O)N=C(N)N)O[C@H]([C@]2(O)CO)C)[C@H]([C@@H]([C@H]1O)O)NC,0.083041044,-5.828,802.825
,C6526,BDADSRBGWZXOQY-UHFFFAOYSA-N,C[C@@H]1C[C@H]2CC(=O)[C@@H]3[C@@]4(C1)[C@@H]2CCCN4CCC3,-2.392500375,2.804,247.376
,C8074,BDCBHVZKPKPCIE-UHFFFAOYSA-N,CCCCCCCNCCSS(=O)(=O)O,-1.293262253,3.5541,255.398
,C1964,BDDYLBIKOCDHKY-UHFFFAOYSA-N,OC(=O)C(CC(=O)O)(CC(=O)O)O.Clc1ccc2c(c1)C1(OCC(O1)CN1CCCCCC1)c1ccccc1CO2,-7.38141449,3.4143,592.034
,C5264,BDERNNFJNOPAEC-UHFFFAOYSA-N,O1CCN(CC1)[NH2+]CCOC(c1ccccc1)c1ccccc1.[Cl-],-3.194360007,-1.4549,348.867
,C1619,BDFDPVIJXDROQT-UHFFFAOYSA-N,CCCO,0.62,0.3887,60.095
,C3927,BDIWFCKBPZPBQT-UHFFFAOYSA-N,Cc1cccc2c1[nH]cc2C1CCCN1Cc1ccccc1,-4.155515529,4.7513,290.402
,C1714,BDJRBEYXGGNYIS-UHFFFAOYSA-N,CCCC[Sn](S[Sn](CCCC)(CCCC)CCCC)(CCCC)CCCC,-15.67628661,10.4112,612.153
,C1118,BDLSDHWCOJPHIE-KFUGMXNISA-N,OC(=O)CCCCCCCC(=O)O,-1.89,1.8863,188.221
,C5723,BDMHRDJIKJNRKY-UHFFFAOYSA-L,COc1ccc2c3c1O[C@@H]1[C@@]43CC[N@@+]([C@H](C2)[C@@H]4C=C[C@@H]1O)([O-])C,-2.899263396,1.4725,315.364
,C9383,BDMWAACMYKFTRK-UHFFFAOYSA-L,C[N+](CCCOCCC[N+](C)(C)C)(C)C.[I-].[I-],0.325879536,-4.7964,472.188
,C9338,BDNMWBHSKATDFB-UHFFFAOYSA-N,CC[N+](CCS(=O)CC[N+](C)(C)C)(CC)C.[I-].[I-],0.297350648,-4.1986,504.253
,C4471,BDOXIBLHBSZILV-UHFFFAOYSA-L,Fc1ccc(cc1)C(=O)Cc1ccccc1C(=O)O,-3.749279118,2.9493,258.244
,C9323,BDQPXVWYFLTETB-UHFFFAOYSA-M,CC[N+](CCOC(C[N+](CC)(C)C)C)(CC)CC.[I-].[I-],0.28880457,-3.6277,514.268
,C5587,BDTQIHMGLSHYJW-UHFFFAOYSA-N,C[N+](CCOC(c1ccccc1)c1ccccc1)(C)C.[Br-],-2.9845335,0.5028,350.293
,C6437,BDVRKCMKQNMZQR-UHFFFAOYSA-N,CCCCN1CCC(CC1)(OC(=O)CC)Cc1ccccn1.Cl.Cl,-2.452892725,4.7539,377.349
,C4197,BDWBXAYAZSRVBR-UHFFFAOYSA-N,COc1ccc(cc1)C(=O)N1CC=Cc2c1cccc2,-3.96891205,3.4338,265.307
,C7586,BDWRWXCLAKVGMM-UHFFFAOYSA-N,CN(C(CC(=O)c1ccccc1)(C)C)C.Cl,-1.675812475,3.4016,241.757
,C9011,BEEDODBODQVSIM-UHFFFAOYSA-N,OS(=O)(=O)SCCNCc1ccccc1,-0.178427682,2.7839,247.334
,C8733,BEHAYNJEBLPIAF-UHFFFAOYSA-N,Cc1cc(c(c(c1CC1=NCCN1)C)O)C(C)(C)C.Cl,-0.60211704,3.4171,296.836
,C4140,BEHGHYQVNYVAMD-UHFFFAOYSA-N,CC[NH+](CCOC(=O)C=C(c1ccccc1)c1ccccc1)CC.[Cl-],-4.010867502,-0.4098,359.89
,C2311,BEJNERDRQOWKJM-UHFFFAOYSA-N,NC(=O)C(c1cccc2c1cccc2)(CCN1CCCCC1)CCN1CCCCC1,-6.191935004,4.891,407.591
,C9860,BEQVQKJCLJBTKZ-UHFFFAOYSA-N,OCc1occ(c(=O)c1)O,0.818001137,-0.1623,142.109
,C6618,BESWVQPILXAJAZ-UHFFFAOYSA-N,OP(=O)(c1ccccc1)c1ccccc1,-2.334517449,1.9078,218.188
,C9759,BEWCNXNIQCLWHP-UHFFFAOYSA-N,NC(=NCCSS(=O)(=O)O)N,0.700616928,1.2772,199.252
,C8005,BEWNZPMDJIGBED-UHFFFAOYSA-N,CC(=C)C(=O)OCCNC(C)(C)C,-1.35824204,1.8847,185.263
,C4800,BEZDDPMMPIDMGJ-UHFFFAOYSA-N,CC(c1ccccc1)NNC(=O)c1ccccc1,-3.53934257,3.464,240.3
,C450,BEZGENOGGHDVMM-UHFFFAOYSA-N,Cc1cc(C)c(c(c1C)C)C,-4,3.2286,148.245
,C2735,BEZLAYYFGVADSA-UHFFFAOYSA-N,Cc1ccc(cc1)N(C(=O)c1ccccc1N(C(=O)CN1CCCCC1)C)C,-5.455364717,3.6582,379.495
,C8706,BEZZFPOZAYTVHN-UHFFFAOYSA-N,CCOP(=O)(OP(=O)(OC)OC)OCC,-0.658102545,2.585,262.135
,C4210,BFCDFTHTSVTWOG-YLJYHZDGSA-N,COC(=O)Nc1nc2c([nH]1)cc(cc2)S(=O)c1ccccc1,-3.956461293,3.8466,315.347
,C2731,BFCFYVKQTRLZHA-UHFFFAOYSA-N,CCCCCCCCN[C@@H]([C@H](c1ccc(cc1)SC(C)C)O)C,-5.460172849,5.95,337.563
,C875,BFCRRLMMHNLSCP-UHFFFAOYSA-N,[O-][N+](=O)c1ccccc1Cl,-2.55,2.7714,157.554
,C4996,BFKJFAAPBSQJPD-UHFFFAOYSA-N,COc1cc(Cc2cnc(nc2N)N)cc(c1Br)OC,-3.389938825,3.1739,339.188
,C5866,BFLQZZJZTFQHKJ-UHFFFAOYSA-N,FC(=C(F)F)F,-2.800040215,1.991,100.015
,C4257,BFLXOMFFVWQPAZ-CEEVVQPDSA-N,COc1cc(CCN(CC2CCc3c(N2)cccc3)C)ccc1OC,-3.915074696,3.743,340.459
,C2439,BFMBKRQFMIILCH-UHFFFAOYSA-N,CC[C@H](C(=O)O[C@H]1[C@H](O)[C@H]2[C@H]([C@H]3[C@]1(O)[C@@H]1[C@H](OC(=O)C)[C@H](OC(=O)C)[C@H]4[C@]5([C@]1(C3)O[C@]4(O)[C@H](CC5)OC(=O)[C@@]([C@H](O)C)(O)C)C)CN1[C@H]([C@@]2(C)O)CC[C@@H](C1)C)C,-5.9390407,0.5159,809.937
,C5630,BFPYWIDHMRZLRN-YNPXEITASA-N,CCN(CCC1(CCC(=O)NC1=O)c1ccccc1)CC,-2.956327169,2.4217,288.385
,C377,BFQDICGJHAONBN-OOFWROCWSA-M,C#C[C@@]1(O)CC[C@@H]2[C@]1(C)CC[C@H]1[C@H]2CCc2c1ccc(c2)O,-4.3000002,3.6126,296.403
,C7407,BFQXGKXWUIMFSH-UHFFFAOYSA-N,[O-]C(=O)CCC(=O)OCC(=O)[C@H]1CC[C@@H]2[C@]1(C)CC[C@H]1[C@H]2CC[C@H]2[C@]1(C)CCC(=O)C2.[Na+],-1.814151487,2.8568,454.532
,C9023,BFSMWENDZZIWPW-UHFFFAOYSA-N,CC(CNCCSS(=O)(=O)O)(C)C,-0.155273019,2.6298,227.345
,C4792,BFUUJUGQJUTPAF-UHFFFAOYSA-N,CC([N+](C(C)C)(CCC(c1ccccc1)(c1ccccc1)C(=O)N)C)C.[I-],-3.54713787,1.8158,480.425
,C5683,BFWINBUSXUXEEY-UHFFFAOYSA-N,CCCOc1ccc(cc1N)C(=O)OCCN(CC)CC.Cl,-2.92084457,3.9394,330.85
,C3316,BGBBHUXHUOMKPM-UHFFFAOYSA-N,C1CCN(CC1)CCC12CC3CC(C2)CC(C1)C3.Cl,-4.710415785,4.8187,283.88
,C5362,BGCNBOFPABQGNG-UHFFFAOYSA-N,CN(CCN(c1ccccn1)Cc1ccc(s1)Cl)C.Cl,-3.127061657,4.1667,332.292
,C9837,BGCODIYHPONIJP-UHFFFAOYSA-N,CCOC(=O)CN(C)C,0.789022462,0.1111,131.173
,C3620,BGDKAVGWHJFAGW-UHFFFAOYSA-N,CC(CC12CC3CC(C2)CC(C1)C3)NC(C)C.Cl,-4.417332724,5.1723,271.869
,C8639,BGHCVCJVXZWKCC-UHFFFAOYSA-N,CCN(C(=O)C(c1ccccc1)CO)Cc1ccncc1,-0.753249798,2.2062,284.353
,C39,BGHPNBADFZVYIL-UHFFFAOYSA-N,CCCCCCCCCCCCCC,-7.96,5.7074,198.388
,C8681,BGJZMKPSRLHMME-UHFFFAOYSA-N,FC(C1(NCCN1)C(F)(F)F)(F)F.O,-0.701130285,1.5934,226.12
,C5531,BGLFTGXQVFYEME-UHFFFAOYSA-L,CCCCCOC(=O)c1ccco1,-3.020044387,2.6266,182.216
,C7151,BGLOCPBIEZYELI-BTJKTKAUSA-N,CC[N+](CCCC[N+]1(C)Cc2c(C1)c(Cl)c(c(c2Cl)Cl)Cl)(CC)C.[I-].[I-],-1.997436432,-0.0062,668.049
,C2997,BGLQEQJSABKOQX-UHFFFAOYSA-N,CN1CCN(CC1)C1Cc2ccccc2Sc2c1cccc2.OC(=O)/C=C\C(=O)O,-5.111436671,3.27,426.529
,C4556,BGQDCDRDPCVLJE-UHFFFAOYSA-N,CCCCOc1c(OC)cccc1C(=O)OCC[NH+](CC)CC.[Cl-],-3.693443446,-1.0404,359.888
,C2264,BGRJTUBHPOOWDU-UHFFFAOYSA-N,COc1ccc2c3c1cccc3C(=O)c1c2cccc1,-6.315090259,4.0598,260.287
,C6848,BGVCGTNXEKDVCB-UHFFFAOYSA-N,CCN1CCCC1CNC(=O)c1cc(ccc1OC)S(=O)(=O)N,-2.176315176,2.6666,341.426
,C7698,BGWJTLLALYACOG-UHFFFAOYSA-N,O=C1C(=O)C(=C(c2c1cccc2)O)C,-1.598799761,1.741,188.179
,C4227,BGXJPPYIDPNUQX-UHFFFAOYSA-N,CCOP(=O)(Oc1ccc(cc1)[N+](=O)[O-])SCC,-3.941833629,4.3945,291.261
,C2422,BHAAPTBBJKJZER-UHFFFAOYSA-N,OC(=O)C(=O)O.CCC(=O)N(c1ccccc1)C(CN1CCC(CC1)c1ccccc1)C.CCC(=O)N(c1ccccc1)C(CN1CCC(CC1)c1ccccc1)C,-5.975995472,8.4268,791.029
,C8625,BHAKPYFEBLDBCE-UHFFFAOYSA-N,COc1ccc(cc1)N,-0.768232754,1.8586,123.152
,C6220,BHCOGFGUMGMUPP-XVQDCFBBSA-N,CCCC(COC(=O)N)(COC(=O)N(C)C)C,-2.583941744,2.2866,246.303
,C4003,BHDBEMWNWGBDBB-UHFFFAOYSA-N,CCOc1ccc2c(c1)c(ccn2)[C@H]([C@@H]1C[C@@H]2CCN1C[C@@H]2CC)O.Cl.Cl,-4.108496741,5.3292,413.381
,C5722,BHECBLIRYXAYDD-KCUXUEJTSA-N,CN(CCCC1(OC(=O)c2c1cccc2)c1ccccc1)C,-2.899841072,3.4424,295.376
,C3768,BHELZAPQIKSEDF-UHFFFAOYSA-N,CN(C/C=C(\c1ccccc1)/c1ccc(cc1)Br)C.Cl,-4.273247623,5.2444,352.696
,C1237,BHNHHSOHWZKFOX-UHFFFAOYSA-N,BrCC=C,-1.5,1.5673,120.976
,C6642,BHQCQFFYRZLCQQ-GLVFPOCZSA-N,Cc1cc2c([nH]1)cccc2,-2.319624796,2.4763,131.174
,C609,BHRZNVHARXXAHW-UHFFFAOYSA-N,O[C@H]1CC[C@]2([C@H](C1)C[C@@H]([C@@H]1[C@@H]2C[C@@H](O)[C@]2([C@H]1CC[C@@H]2[C@H](CCC(=O)O)C)C)O)C,-3.3699999,3.4487,408.571
,C9230,BHSRBJWYRHNBNG-UHFFFAOYSA-N,CCC(N)C,0.185069005,1.4439,73.1368
,C7052,BHUAIVHXNJWQMH-UHFFFAOYSA-N,O=C(c1ccccc1)C=NN1CCCC1,-2.057930295,1.8888,202.252
,C7085,BHVQKUWREDMFLD-UHFFFAOYSA-N,CCCCSCCCN1CSCC1.Cl,-2.04251952,3.656,255.871
,C8732,BHYKHYYQPFOAPJ-UHFFFAOYSA-N,CCC(C#C)(C=C)O,-0.602675464,0.9467,110.154
,C7607,BHYWREOEQYCKSC-UHFFFAOYSA-N,CCOC(=O)n1c(=O)ccc2c1cccc2,-1.659300854,2.0061,217.221
,C8606,BIADSXOKHZFLSN-YEUOVSOVSA-N,Cc1ncsc1CC(=O)O,-0.786483502,1.0786,157.19
,C1734,BIBTUTRXEHVQBZ-BTJKTKAUSA-N,C/C(=C\CCC1[C@](C)(O)CCC2[C@]1(C)CCCC2(C)C)/CC[C@@H]1C(=C)CCCC1(C)C,-11.79334998,8.8692,428.733
,C2973,BIFSHLDUWCDEME-WLHGVMLRSA-N,O1CCN(CC1)CC1COC2(O1)c1ccccc1C=Cc1c2cccc1.OC(=O)/C=C\C(=O)O,-5.13900486,2.7688,465.495
,C2723,BIGRRCHSUAXSEE-UHFFFAOYSA-N,[O-]C(=O)/C=C/C(=O)O.COc1cc2C[NH+](CCCc3ccc(cc3)Cl)CCc2cc1OC,-5.471460032,2.8773,461.935
,C1546,BIKNTKSEMWGCDC-UHFFFAOYSA-L,Cc1ncc2c(n1)nccn2,-0.12,0.7282,146.149
,C9535,BILWDWLNZFTXAN-UHFFFAOYSA-N,OC(C[N+](C)(C)C)C[N+](C)(C)C.[Br-].[Br-],0.473515982,-6.2323,336.108
,C7903,BIPNRIQANSKZIV-UHFFFAOYSA-N,[O-][N+](=O)c1ncc(n1C)C,-1.450649337,1.1599,141.128
,C5245,BIQMIYWSZZTXEX-UHFFFAOYSA-N,Cn1c(C)c(N2CCCC2)c(=O)n(c1=O)c1ccccc1,-3.211343691,1.5098,285.341
,C8942,BIRDTWYHBGEPKA-UHFFFAOYSA-N,CC(NCC(=O)c1ccc(c(c1)O)O)C,-0.316333715,1.6694,209.242
,C4000,BIRIVPOTERXIOW-UHFFFAOYSA-N,OC(=O)Cc1ccc2c(c1)nc(s2)c1ccc(cc1)N(C)C,-4.110877573,3.6564,312.386
,C4225,BITRJBQGQMGGQI-UHFFFAOYSA-N,OC(=O)c1c[nH]c2c(c1=O)ccc(c2)C(F)(F)F,-3.943349307,2.2451,257.165
,C6284,BITVSRNAFFZUFW-UHFFFAOYSA-N,C1CCN(CC1)CC1COc2c(O1)cccc2.Cl,-2.542812564,3.0522,269.767
,C3915,BIWJNBZANLAXMG-GPTKHRSPSA-N,CC[n+]1c(c2ccccc2)c2cc(N)ccc2c2c1cc(N)cc2.[Cl-],-4.165498874,2.2982,349.857
,C91,BIXYYZIIJIXVFW-UUOKFMHZSA-N,Cl[C@@H]1C[C@H]2[C@@H]([C@H]1Cl)[C@]1(C([C@]2(Cl)C(=C1Cl)Cl)(Cl)Cl)Cl,-6.8600001,5.6828,409.779
,C6523,BIZNPARPIXOXET-UHFFFAOYSA-M,OC[C@H]1O[C@H]([C@@H]([C@@H]1O)O)n1cnc2c1nc(Cl)nc2N,-2.39319678,-0.7454,301.686
,C3265,BIZSJKULZKHUPS-UHFFFAOYSA-N,[O-]C(=O)C(c1cccc2c1cccc2)Cc1cccs1.[Na+],-4.782653878,2.9775,304.339
,C7422,BJAPFJYWQGURRJ-SJDTYFKWSA-N,CC1CC(C)(C)NC(C1)(C)C,-1.801963422,2.8919,155.28
,C3791,BJBAFESJPDKJEJ-UHFFFAOYSA-N,CN(C/C=C(/c1cccc(c1)C(F)(F)F)\c1ccccc1)C.Cl,-4.257312795,5.5007,341.798
,C5279,BJCWIQWIQDDOBQ-UHFFFAOYSA-M,CCCCNC(=O)OCC(COC(=O)N)(CC)C,-3.17498166,3.1155,260.33
,C4415,BJFGVYCULWBXKF-UHFFFAOYSA-M,c1ccc(cc1)CN(Cc1ccccc1)/C=C/C=C/C=[N+](Cc1ccccc1)Cc1ccccc1.[Cl-],-3.791468754,4.2464,493.082
,C7805,BJFPXELCDQCHFX-UHFFFAOYSA-N,COC(C[Hg]Cl)CNC(=O)N,-1.523506427,1.4155,367.196
,C2644,BJGSKLLZKPRQPU-UHFFFAOYSA-N,CCN(CCC(c1cccc2c1cccc2)(C(=O)N)CC=C(C)C)C,-5.585069586,4.9613,338.486
,C1900,BJJDXAFKCKSLTE-UHFFFAOYSA-N,CCN(CCN1c2ccccc2Sc2c1cc(cc2)C(C)(C)C)CC.Cl,-7.874521815,6.7956,391.013
,C1307,BJLUMCCGHWLDON-UHFFFAOYSA-N,Cc1cc(N)nc(n1)C,-1.28,1.2568,123.156
,C6433,BJORNXNYWNIWEY-UHFFFAOYSA-N,OCCNC(=O)c1cccc(c1O)c1ccccc1,-2.45377264,2.1722,257.284
,C9287,BJPJNTKRKALCPP-UHFFFAOYSA-N,C1CN=C(N1)C1CCCc2c1cccc2.Cl,0.263212583,2.6746,236.74
,C7037,BJQHLKABXJIVAM-PMACEKPBSA-N,CCCNC(C(=O)Nc1ccccc1C)C.Cl,-2.063198055,3.5875,256.772
,C86,BJVUKUWSDFUNPA-UHFFFAOYSA-N,CCCC[C@@H](COC(=O)c1ccccc1C(=O)OC[C@H](CCCC)CC)CC,-6.96,6.433,390.556
,C5003,BJVVMKUXKQHWJK-UHFFFAOYSA-N,CNCCC12CC3CC(C1)CC(C2Cl)C3.Cl,-3.384562218,4.2225,264.234
,C6991,BJVVMKUXKQHWJK-ZETCQYMHSA-N,CCC(C1(CC=C)C(=O)NC(=O)NC1=O)C,-2.092114516,1.6186,224.256
,C1063,BJYBJYYHZYGRIW-UHFFFAOYSA-L,CC[C@@H](C1(CC=C)C(=O)NC(=O)NC1=O)C,-2.02,1.6186,224.256
,C8417,BJYONXICRMQIJO-UHFFFAOYSA-N,CC[N+](CC[N+]1(C)Cc2c(C1)c(Cl)c(c(c2Cl)Cl)Cl)(CC)C.[I-].[I-],-0.966067793,-0.7864,639.996
,C6133,BKCCAYLNRIRKDJ-UHFFFAOYSA-N,OC(=O)Cc1ccc2c(c1)nc(s2)c1ccccn1,-2.638764086,2.9854,270.306
,C6572,BKEWDCUQDVDPHC-HNNXBMFYSA-N,c1ccc(cc1)C1=NCCN1,-2.360787116,0.8008,146.189
,C3133,BKEWDCUQDVDPHC-UHFFFAOYSA-N,OC(=O)[C@H]1CCc2c1ccc(c2)C1CCCCC1,-4.940825874,3.8487,244.329
,C3132,BKIMMITUMNQMOS-UHFFFAOYSA-N,OC(=O)C1CCc2c1ccc(c2)C1CCCCC1,-4.940825874,3.8487,244.329
,C151,BKNGZNGNHIETPG-KCUXUEJTSA-N,CCCCCCCCC,-5.8800001,3.7569,128.255
,C4473,BKOOMYPCSUNDGP-UHFFFAOYSA-N,CN(C/C=C(\c1ccccc1)/c1ccc(cc1)Cl)C.Cl,-3.747745851,5.1353,308.245
,C869,BKPHTVREKNCZDU-UHFFFAOYSA-N,CC=C(C)C,-2.5599999,1.9725,70.1329
,C5045,BKQCNUPZIBYHSN-UHFFFAOYSA-N,CN1CCN(CC1)CCC12CC3CC(C2)CC(C1)C3.Cl.Cl,-3.349416104,4.3201,335.355
,C9403,BKRMCDAOAQWNTG-UHFFFAOYSA-N,OCCC/N=C(/CSS(=O)(=O)O)\N,0.343960751,1.0431,228.29
,C2279,BKUXFGWLJDZSMK-UHFFFAOYSA-N,COc1ccc2c(c1)c1c(C)c3cnccc3c(c1[nH]2)C,-6.268255898,4.4947,276.332
,C7406,BKWAVXQSZLEURV-UHFFFAOYSA-N,CCC1(NC)CC2CC1CC2,-1.814386462,2.5655,153.265
,C4512,BKYKPTRYDKTTJY-UHFFFAOYSA-N,ClC(C(F)(F)F)C(F)(F)F,-3.717966373,2.7184,186.483
,C4012,BKZXZGWHTRCFPX-UHFFFAOYSA-N,Clc1cc2NC(CC3CCCC3)NS(=O)(=O)c2cc1S(=O)(=O)N,-4.105131919,4.9263,379.883
,C5986,BLAAWVPMHICNCQ-UHFFFAOYSA-N,Cc1cccc(c1O)C(C)(C)C,-2.727796227,2.9981,164.244
,C2881,BLABUAQFKZONEO-UHFFFAOYSA-N,Ic1ccc(cc1)C(=O)OCCCN1CCCCC1C,-5.25355,3.6504,387.256
,C1871,BLBSCAYCUDWNQZ-BTJKTKAUSA-N,CC(CC(C)(C)C)(NCC1CCC(CC1)CNC(CC(C)(C)C)(C)C)C.Cl.Cl,-8.144741192,8.7874,439.589
,C3011,BLFLLBZGZJTVJG-UHFFFAOYSA-N,OC(=O)/C=C\C(=O)O.CNCC1COC2(O1)c1ccccc1CCc1c2cccc1,-5.098447456,2.7238,411.448
,C841,BLFQCTZPRNTYFS-UHFFFAOYSA-N,CCOC(=O)c1ccc(cc1)N,-2.6199999,2.0267,165.189
,C4750,BLFQGGGGFNSJKA-XHXSRVRCSA-N,Brc1ccc(nc1)SCCCCN1CSCC1.Cl,-3.574488407,4.4626,369.772
,C4770,BLGFGFHRMMDRPC-UHFFFAOYSA-N,CN[C@H]1CC[C@H](c2c1cccc2)c1ccc(c(c1)Cl)Cl.Cl,-3.562696046,6.3725,342.691
,C3495,BLGXFZZNTVWLAY-DIRVCLHFSA-N,CCOC1c2ccccc2C(=O)N(c2c1cccc2)C,-4.540553724,3.4675,267.322
,C4116,BLGXFZZNTVWLAY-SCYLSFHTSA-N,COC(=O)[C@@H]1[C@@H](O)CC[C@H]2[C@@H]1C[C@@H]1N(C2)CCc2c1[nH]c1c2cccc1,-4.030514954,2.585,354.443
,C5388,BLISXILRWQPCCP-UHFFFAOYSA-N,COC(=O)[C@H]1[C@@H](O)CC[C@@H]2[C@@H]1C[C@@H]1N(C2)CCc2c1[nH]c1c2cccc1,-3.107859857,2.585,354.443
,C4245,BLJZBCPEUMJBTG-UHFFFAOYSA-N,CCc1nc(NC(C)C)nc(n1)NC(C)C,-3.928979669,2.2206,223.318
,C2867,BLNVISNJTIRAHF-UHFFFAOYSA-N,C[NH+](CCCC1(CCCc2c1cccc2)c1ccccc1)C.[Cl-],-5.265545068,0.2377,329.907
,C7604,BLOKTSBTOMCITO-UHFFFAOYSA-N,NC(=O)c1ccc(cc1)Cl,-1.660349899,2.1392,155.582
,C6087,BLPPIZXJGJXNPW-UHFFFAOYSA-N,CN(CC(C(=O)c1ccccc1)c1ccccc1)C.Cl,-2.664835351,4.0167,289.8
,C3642,BLPUOQGPBJPXRL-FNORWQNLSA-N,COc1ccc(cc1)C(=O)CCN1CCC(CC1)c1ccccc1.Cl,-4.394806616,4.8875,359.89
,C4853,BLQOLXMZXQXGOL-UHFFFAOYSA-N,O=C(N1CCCCC1)/C=C/c1ccc2c(c1)OCO2,-3.500049988,2.3789,259.3