Name,Compound ID,InChIKey,SMILES,logS,logP,MW
,C5473,CKURLAXVGVRCEI-UHFFFAOYSA-N,CCCCCCOc1ccccc1C(=O)N,-3.054724145,3.4449,221.295
,C3922,CLFJVCIWWFEVMI-UHFFFAOYSA-N,CCCCN1CCC(CC1)(OC(=O)CCC)C1CCCCC1.Cl,-4.158804604,5.2846,345.948
,C4312,CLJHABUMMDMAFA-UHFFFAOYSA-N,CCC(=O)OC1(C(=O)NC(=O)NC1=O)C(c1ccccc1)C,-3.863168752,1.5057,304.298
,C7935,CLJMMQGDJNYDER-UHFFFAOYSA-N,CC(NC(C(c1ccc(cc1)O)O)C)CCc1ccccc1.Cl,-1.4292638,4.6179,335.868
,C8446,CLMSSAXBOFCANU-UHFFFAOYSA-N,CCCC(CCC)N,-0.943263145,2.6142,115.217
,C5542,CLOMYZFHNHFSIQ-UHFFFAOYSA-N,Brc1ccc(nc1)OCCCCN1CSCC1.Cl,-3.015884364,3.7493,353.706
,C2214,CLPTUIWEBUOUCQ-UHFFFAOYSA-N,OC(=O)c1cccnc1Nc1cccc(c1C)Cl,-6.450685436,3.5582,262.692
,C5031,CLWIJUQLAFJNOF-UHFFFAOYSA-N,CC(P(=O)(c1ccccc1)c1ccccc1)C,-3.362571379,3.4089,244.269
,C3510,CLZXREZAEIUCGG-UHFFFAOYSA-N,C/C(=N\c1ccccc1)/Nc1ccccc1,-4.528798167,3.9216,210.274
,C2331,CMCCHHWTTBEZNM-UHFFFAOYSA-N,ClCCN(c1cc(C)c(c2c1cccc2)OC)CCCl,-6.144232188,4.4408,312.234
,C7424,CMEAGPOJDJVIAH-UHFFFAOYSA-N,BrC(C(=O)NC(=O)N)C(C)C,-1.801528544,1.692,223.068
,C1816,CMEGANPVAXDBPL-INIZCTEOSA-N,OC(C1CCCC(N1)C(Cc1ccccc1)(Cc1ccccc1)O)(Cc1ccccc1)Cc1ccccc1,-8.883036682,6.2589,505.69
,C3607,CMGQPYRBLKIVLO-RRAJOLSVSA-N,COc1c2c(CC[C@@H](c3c2ccc(c(=O)c3)SC)NC(=O)C)cc(c1OC)OC,-4.436160557,3.9758,415.503
,C7066,CMHHMUWAYWTMGS-UHFFFAOYSA-N,O=C(C[NH+]1CCCC1)N/N=C/c1ccc(o1)[N+](=O)[O-].[Cl-],-2.052899147,-1.1961,302.714
,C4892,CMHMMKSPYOOVGI-UHFFFAOYSA-N,CCCCOc1cc(ccc1N)C(=O)OCCN(CC)CC,-3.464659681,3.5275,308.416
,C6496,CMSMOCZEIVJLDB-UHFFFAOYSA-N,CC(OC(=O)c1ccc(cc1)O)C,-2.416912926,1.9574,180.2
,C8579,CMVQZRLQEOAYSW-UHFFFAOYSA-N,ClCCN(P1(=O)NCCCO1)CCCl,-0.81471862,2.2128,261.086
,C580,CMWTZPSULFXXJA-VIFPVBQESA-N,[O-][N+](=O)c1cccc(c1Cl)Cl,-3.48,3.4248,192
,C412,CNBCNHHPIBKYBO-NSCUHMNNSA-N,COc1ccc2c(c1)ccc(c2)[C@@H](C(=O)O)C,-4.1599998,3.0365,230.259
,C6713,CNBGNNVCVSKAQZ-UHFFFAOYSA-N,COc1ccc(cc1)/C=C/C#N,-2.266907175,2.23198,159.185
,C4097,CNCOQPXJERKGEX-UHFFFAOYSA-N,CN(CCCOc1nn(c2c1cccc2)Cc1ccccc1)C,-4.047119081,3.4151,309.405
,C1877,CNCUKGDUDOASDV-UHFFFAOYSA-N,CC[NH+](CCOC(=O)C(c1ccc2c(c1)cccc2)c1ccc2c(c1)cccc2)CC.[Cl-],-8.101052559,1.5968,447.996
,C4729,CNEOZRIZTKXNDU-UHFFFAOYSA-N,FCCCCCCBr,-3.587741807,2.9112,183.062
,C1854,CNFNOTBBFIIERQ-UHFFFAOYSA-N,[O-]C(=O)C(=O)[O-].Clc1cccc(c1)C1(CC[NH+](CC1)C(CCC(=O)c1ccccc1)F)C(=O)[NH+]1CCCC1,-8.372515236,2.0451,547.015
,C2967,CNFQARFTXUBHJY-UHFFFAOYSA-N,CCCCOc1ccc(cc1)OCC(=O)N(c1cccc(c1)OC)CCN(C)C.Cl,-5.146303975,4.6497,436.972
,C9830,CNGNQNHWZQZZPC-LIXABZRUSA-N,NCC(=O)c1ccc(c(c1)O)O,0.776857245,0.9395,167.162
,C2552,CNIIGCLFLJGOGP-UHFFFAOYSA-N,CC(=O)Oc1ccc2c(c1)[C@]13CCCC[C@H]3[C@@H](C2)N(CC1)CCc1ccccc1.Cl,-5.733984005,5.6529,425.991
,C3801,CNNVSINJDJNHQK-UHFFFAOYSA-N,C1CN=C(N1)Cc1cccc2c1cccc2,-4.251284163,2.1484,210.274
,C6019,CNVIJMYLRLPXNY-UHFFFAOYSA-N,CN1CCOC(c2c(C1)cccc2)c1ccccc1.Cl,-2.703191,3.9779,289.8
,C6995,CNWUDWCPTYHKSL-UHFFFAOYSA-N,CCC(C(C)C)(COC(=O)N)COC(=O)N,-2.089550013,2.63,232.277
,C3040,CNYRGVIFIXLHHK-FJBFXRHMSA-N,COc1c(OC)c(OC)cc2c1C(CCc1ccc(cc1)Cl)[NH+](CC2)C.[Br-],-5.057670848,1.6837,456.801
,C1755,COAJXCLTPGGDAJ-UHFFFAOYSA-N,CCCCCCC[NH+](C(=N)c1ccc(c2c1cccc2)OCCC)CCCCCCC.[Cl-],-10.49356261,3.8834,461.123
,C7173,COAWNPJQKJEHPG-UHFFFAOYSA-N,C=CCOc1ccccc1OCC(CNC(C)C)O.Cl,-1.977307944,3.182,301.809
,C4153,COCNDHOPIHDTHK-UHFFFAOYSA-N,Oc1cc(O)c2c(c1)[o+]c(c(c2)O)c1ccc(c(c1)O)O.[Cl-],-4.001613937,-0.0871,322.697
,C7621,COGWTYZJZRNZQG-UHFFFAOYSA-N,COc1ccc2c(c1)c(c[nH]2)CC(=O)O,-1.644751916,1.8036,205.21
,C468,COIKZKVUCOJBTN-UHFFFAOYSA-L,Nc1ccc2c(c1)N(C)C(=O)c1c(O2)ccc(c1)C,-3.9300001,3.6057,254.284
,C9262,COLNVLDHVKWLRT-MRVPVSSYSA-N,CC[N+](CCCCc1ccc(cc1)[N+](CC)(CC)CC)(CC)CC.[I-].[I-],0.230326598,-0.7392,588.391
,C1321,COMXLJMCXIJWOR-UHFFFAOYSA-N,N[C@@H](C(=O)O)Cc1ccccc1,-1.23,1.3413,165.189
,C5065,COQAPWLZSHQTKA-MSDOJSJISA-N,OCC(COc1ccccc1C(=O)NC1CCCCC1)O,-3.337071584,1.872,293.358
,C1761,COSWCAGTKRUTQV-UHFFFAOYSA-N,O=C/C(=C\C[C@]12OC([C@H]3[C@]42Oc2c(C(=O)C4=C[C@@H](C1=O)C3)c(O)c1c(c2CC=C(C)C)OC(C=C1)(C)C)(C)C)/C,-10.05037097,5.6271,544.635
,C9349,COTCEGYSNTWJQV-UHFFFAOYSA-N,CNC(=O)N(C)C,0.303417342,0.2783,102.135
,C9747,COUZOQKUCIBMSF-UHFFFAOYSA-N,CNCC(c1ccc(cc1)O)O.Cl,0.691081466,1.8379,203.666
,C2203,COVFEVWNJUOYRL-UHFFFAOYSA-N,Clc1ccccc1CNCC1CCC(CC1)CNC1CCCCC1.Cl.Cl,-6.472895446,7.5441,421.875
,C5855,COVZYZSDYWQREU-UHFFFAOYSA-N,O=C(c1cc(O)c(c(c1)O)O)Oc1cc(cc(c1O)O)C(=O)O,-2.809189242,1.132,322.224
,C8776,CPBGSLIVFJMDAK-UHFFFAOYSA-N,CS(=O)(=O)OCCCCOS(=O)(=O)C,-0.552916053,1.8806,246.302
,C2410,CPCPUCRSKRHVAH-UHFFFAOYSA-N,COC(=O)C1CCc2c1ccc(c2)C1CCCCC1,-5.995586433,3.9371,258.355
,C7987,CPDDDTNAMBSPRN-ZZXKWVIFSA-N,CC(NCC(c1ccccc1Cl)O)C.Cl,-1.372917194,3.5643,250.165
,C5578,CPEUVMUXAHMANV-UHFFFAOYSA-N,OC(=O)/C=C/c1ccc(cc1)Br,-2.99064693,2.5469,227.055
,C2886,CPFJLLXFNPCTDW-UHFFFAOYSA-N,COC(=O)Nc1nc2c([nH]1)cc(cc2)C(=O)c1ccc(cc1)F,-5.243819194,3.1843,313.283
,C2750,CPGPAVAKSZHMBP-UHFFFAOYSA-N,CS(=O)(=O)O.CN1C2CCC1CC(C2)OC(c1ccccc1)c1ccccc1,-5.443020357,4.9405,403.535
,C149,CPIRVEAKCHZXJX-UHFFFAOYSA-N,Cc1c2ccccc2cc2c1cccc2,-5.8899999,4.3014,192.256
,C2325,CPJAUCNNLLTZAX-UHFFFAOYSA-N,O=C(n1c2ccccc2c2c1cccc2)OCC[NH+]1CCCCC1.[Cl-],-6.160480633,1.4212,358.862
,C9218,CPJSUEIXXCENMM-UHFFFAOYSA-N,CON=Cc1ccncc1,0.166999559,1.0619,136.151
,C937,CPLQLYDHVGNBIJ-UHFFFAOYSA-N,CCOc1ccc(cc1)NC(=O)C,-2.3699999,2.1167,179.216
,C9470,CPMZWWWXIWHTMU-IAWOBFGDSA-N,NCCCNC(CS)C.Cl.Cl,0.387640032,2.9383,221.192
,C67,CPNGPNLZQNNVQM-UHFFFAOYSA-N,C[C@H]1CO[C@H]2[C@H](C1)O[C@H]1[C@@](C2)(C)[C@@]2([C@@H](C1)[C@@H]1C=C3C[C@H](O)CC[C@]3(C[C@H]1CC2)C)C,-7.3200002,5.5088,414.621
,C1565,CPTBDICYNRMXFX-UHFFFAOYSA-N,c1ncc2c(n1)nccn2,0.02,0.4198,132.123
,C6825,CQCCIWUTQBJFPB-UHFFFAOYSA-L,CNNCc1ccc(cc1)C(=O)NC(C)C,-2.193313033,2.2215,221.299
,C9436,CQCDYXIFOXRWDK-UHFFFAOYSA-N,C[N+](CCCCCC[n+]1ccc2c(c1)cccc2)(C)C.[Br-].[Br-],0.364271037,-2.5981,432.236
,C7480,CQDBDTSGRAWSKF-UHFFFAOYSA-N,CNC1C2CCC(C1(C)C)C2,-1.752485033,2.4214,153.265
,C4545,CQEWMIYTLWJAAY-UHFFFAOYSA-N,CCCNC(=O)OCC(COC(=O)N)(CCCC)C,-3.696383284,3.5056,274.357
,C6733,CQISYTXUORWJSX-UHFFFAOYSA-N,CCn1c(=O)oc2c1cccc2,-2.255528059,1.6144,163.173
,C1712,CQMSOKCEWXQWON-FNORWQNLSA-N,CCCCCCCCCCCCCCCCCC(=O)Nc1ccc(cc1)NC(=O)CCCCCCCCCCCCCCCCC,-17.46845707,14.2326,641.065
,C6385,CQNGHORGWAQCJI-FLCXFYETSA-N,C=CCOc1ccc(cc1OC)/C=C/C(=O)NO,-2.488178043,2.1695,249.263
,C5526,CQOVPNPJLQNMDC-ZETCQYMHSA-N,Oc1cc(C)c2c(c1)[C@]13CCCC[C@H]3[C@@H](C2)N(CC1)C.Cl,-3.022973235,4.1287,307.858
,C8854,CQQFAUQTNNFFDB-UHFFFAOYSA-N,NCCC(=O)N[C@H](C(=O)O)Cc1[nH]cnc1,-0.440324347,-0.0384,226.232
,C7074,CQQQDWPTFATORJ-UHFFFAOYSA-N,NC1CCN(C1=O)c1ccccc1.Cl.O,-2.051278673,2.2536,230.691
,C6000,CQRYARSYNCAZFO-UHFFFAOYSA-N,CC(C(c1ccccc1)(C(=O)N)CCN1CCOCC1)C,-2.714819068,2.4262,290.401
,C1521,CQSFYCBGVMWPCM-UHFFFAOYSA-N,OCc1ccccc1O,-0.28999999,0.8845,124.137
,C8673,CRDAMVZIKSXKFV-YFVJMOTDSA-N,Nc1nnc(o1)c1ccccc1,-0.715906344,1.9,161.161
,C2993,CRIORHLFFJUMFG-OCIYDRMTSA-N,OC/C=C(/CC/C=C(/CCC=C(C)C)\C)\C,-5.11739824,4.3979,222.366
,C3321,CRIZPXKICGBNKG-UHFFFAOYSA-N,CCCOc1ccc2c(c1)[C@]13CCCC[C@H]3[C@@H](C2)N(CC1)C.Br,-4.707467429,5.0596,380.362
,C7541,CRNIHJHMEQZAAS-UHFFFAOYSA-N,O=c1ncc2c([nH]1)nc[nH]2,-1.713616912,-0.3538,136.111
,C890,CRNNFEKVPRFZKJ-UHFFFAOYSA-N,CCC(Cl)(C)C,-2.51,2.4138,106.594
,C3226,CROGROFAKDECNL-MBHUSPCXSA-N,ON=C1c2ccccc2c2c1cccc2,-4.840277403,2.8936,195.217
,C4788,CRPNQSVBEWWHIJ-UHFFFAOYSA-N,CCCN1CC[C@@]23[C@H]([C@H]1Cc1c3cc(cc1)O)CCCC2.Br,-3.551050661,4.7566,366.336
,C8377,CRQCPVNYRRBQTD-UHFFFAOYSA-N,O=Cc1ccc(c(c1O)O)O,-1.000341097,0.6159,154.12
,C9634,CRQQGFGUEAVUIL-UHFFFAOYSA-N,CNCCCNCCSP(=O)(O)O.O,0.608602615,0.7289,246.265
,C168,CRRLVLBCRZIHHS-LWBVMVAASA-N,N#Cc1c(Cl)c(C#N)c(c(c1Cl)Cl)Cl,-5.6399999,4.04356,265.911
,C3569,CRSNGJNHERUXSD-UHFFFAOYSA-N,CC(CCN1CC[C@@]23[C@H]([C@H]1Cc1c3cc(cc1)O)CCCC2)C.Cl,-4.468450337,5.2366,349.938
,C8870,CRUJHLHRJSNZIU-UHFFFAOYSA-N,OS(=O)(=O)SCCNCCOc1ccccc1,-0.417727003,2.6627,277.36
,C7540,CRWAQORBUBHIDG-UHFFFAOYSA-N,N#CC(=Cc1ccco1)C#N,-1.713938227,1.71016,144.13
,C3570,CRWUUOBIPYBVKP-UHFFFAOYSA-M,CNCCCC1(CCc2c1cccc2)c1ccccc1.Cl,-4.466965466,5.1114,301.854
,C3301,CRXGSOIRPYQOTQ-UHFFFAOYSA-N,ClCCN(c1cc(ccc1C)C(=O)[O-])CCCl.[Na+],-4.740419518,1.6425,298.141
,C9143,CRYDBSUOPZRYDG-UHFFFAOYSA-N,NCC1CCC(C(O1)OC1C(NC)CC(C(C1O)OC1OCC(C(C1O)NC)(C)O)N)N,0.054038369,-0.8333,463.569
,C7244,CRYJNUIPRHZUPU-UHFFFAOYSA-N,COc1c(OC)cc2c(c1O)CC(N)CCC2,-1.926589588,2.3158,237.295
,C4600,CSATVXJBGFVJES-UHFFFAOYSA-N,CN1C2CCC1CC(C2)Oc1cccc(c1)C(F)(F)F.Cl,-3.66555806,4.4493,321.766
,C7315,CSEMVYTXVZNGDN-UHFFFAOYSA-N,CC(=O)c1ccc(cc1)S(=O)(=O)N,-1.876095782,2.3177,199.227
,C4414,CSEWAUGPAQPMDC-UHFFFAOYSA-N,COP(=O)(Oc1cc(C)c(c(c1)C)[N+](=O)[O-])OC,-3.792260709,3.5145,275.195
,C8146,CSGBRIWXMBIKEM-UHFFFAOYSA-N,OC(=O)Cc1ccc(cc1)N,-1.232606106,1.4771,151.163
,C6740,CSHWQDPOILHKBI-UHFFFAOYSA-N,CCOc1cc(ccc1O)C(=O)N(CC)CC,-2.251444267,2.2729,237.295
,C9,CSNNHWWHGAXBCP-UHFFFAOYSA-L,c1cc2cccc3c2c(c1)c1cccc2c1c3ccc2,-8.8000002,5.7372,252.309
,C9152,CSOJYIADHHNGRM-UHFFFAOYSA-N,[O-]S(=O)(=O)[O-].[Mg+2],0.065952348,-0.2572,120.368
,C7025,CSQXNWZCQFPOFB-UHFFFAOYSA-N,OC(=O)CCCCCC1SCC(=O)N1,-2.072916593,1.5394,217.285
,C5815,CSRRBDMYOUQTCO-UHFFFAOYSA-N,[O-][N+](=O)c1cn(c(n1)C)CCBr,-2.839114495,2.0178,234.051
,C9716,CSUHFMCPKPKGOF-UHFFFAOYSA-N,CNCC(=O)c1ccc(c(c1)O)O.Cl,0.662243324,1.6928,217.649
,C5394,CSUWOZHJCIQEMQ-UHFFFAOYSA-N,Nc1ccc2c(c1)nc1c(c2)c(N)ccc1,-3.10582577,3.7148,209.247
,C3805,CSVGVHNFFZWQJU-UHFFFAOYSA-N,Cc1c(N)ccc2c1nc1c(c2)ccc(c1C)N,-4.24497495,4.3316,237.3
,C7222,CSVLJZZEXDDQJF-UHFFFAOYSA-N,C#CCN(C1CCc2c1cccc2)C,-1.943522646,2.2389,185.265
,C7308,CSWDSRGWVHVGBE-UHFFFAOYSA-N,OCC(COc1ccccc1C)(O)C,-1.879501049,1.1171,196.243
,C4301,CTENFNNZBMHDDG-UHFFFAOYSA-N,Clc1ccc2c(c1)C(=NC(C(=O)N2)[n+]1cccc(c1)C(=O)N)c1ccccc1Cl.[Cl-],-3.872694613,0.646,461.728
,C9771,CTGFGRDVWBZYNB-UHFFFAOYSA-N,NCCc1ccc(c(c1)O)O.Cl,0.722072321,2.1013,189.639
,C7123,CTHUKFGHEPDDJE-UHFFFAOYSA-N,Brc1ncnc2c1[nH]cn2,-2.024719233,1.1154,199.008
,C6558,CTJVKQQQPGIGRS-UHFFFAOYSA-N,CCCCc1c(C)[nH]c(=S)[nH]c1=O,-2.366848077,2.0835,198.285
,C2842,CTLQCKNLIJCWJU-UHFFFAOYSA-N,CCCCCCOc1ccccc1NC(=O)OCC[NH+]1CCCCC1.[Cl-],-5.293807869,1.9092,384.941
,C4818,CTLWQMICLDLMLR-UHFFFAOYSA-N,Clc1ccc(nc1)OCCCCCCN1CSCC1.Cl,-3.528020217,4.4204,337.308
,C6925,CTMHWPIWNRWQEG-UHFFFAOYSA-N,CN1C(CCC1(C)C)c1c[nH]c2c1cccc2,-2.138472007,3.6511,228.333
,C635,CTPFAVZEPCBUKH-UHFFFAOYSA-N,CC1=CCCCC1,-3.27,2.5067,96.1702
,C6463,CTQNGGLPUBDAKN-UHFFFAOYSA-N,O=C(C(Cl)Cl)Nc1ccccc1C(=O)N,-2.437477847,2.301,247.078
,C776,CTSLUCNDVMMDHG-RXMQYKEDSA-N,Cc1ccccc1C,-2.8,2.3034,106.165
,C886,CTSPAMFJBXKSOY-UHFFFAOYSA-N,CC[C@H](n1c(=O)[nH]c(c(c1=O)Br)C)C,-2.52,1.5785,261.116
,C2303,CTUVIUYTHWPELF-IYEMJOQQSA-L,Cc1c2cnccc2c(c2c1c1ccccc1[nH]2)C,-6.206228569,4.4861,246.306
,C9466,CTVRBEKNQHJPLX-UHFFFAOYSA-N,OC[C@H]([C@H]([C@@H]([C@H](C(=O)[O-])O)O)O)O.OC[C@H]([C@H]([C@@H]([C@H](C(=O)[O-])O)O)O)O.[Mg+2],0.38237175,-9.6556,414.6
,C10,CTVUQTJFCOUSCI-UHFFFAOYSA-N,Clc1cc(Cl)c(c(c1)Cl)c1cc(Cl)cc(c1Cl)Cl,-8.71,7.274,360.878
,C2586,CTZKUHWIUDBFRC-UHFFFAOYSA-N,CCCCN1CCC(CC1)(OC(=O)Cc1ccccc1)c1ccccc1.Cl,-5.680824996,5.3036,387.943
,C7845,CTZOFCKLLMFZQM-UHFFFAOYSA-N,C#CCN1C(=O)Cc2c(S1(=O)=O)cccc2,-1.495902618,1.4119,235.259
,C5832,CUBBLXVBSIQEFT-UHFFFAOYSA-N,Nc1ccc(cc1)C(=O)Nc1ncccc1C(=O)O,-2.826022454,2.2685,257.245
,C6263,CUCHJCMWNFEYOM-UHFFFAOYSA-N,CCCC(COC(=O)N)(COC(=O)N1CCOCC1)C,-2.559543775,1.9951,288.34
,C3681,CUCUKLJLRRAKFN-UHFFFAOYSA-N,CCOC(=O)C1N=C(c2c(NC1=O)ccc(c2)Cl)c1ccccc1F,-4.363270247,2.7739,360.767
,C4723,CULQSUABDCVMTA-UHFFFAOYSA-N,CC(=O)C1C(=O)C=C2C(C1=O)(C)c1c(O)c(C)c(c(c1O2)C(=O)C)O,-3.590214053,1.4998,344.315
,C7149,CULUKMPMGVXCEI-VHSXEESVSA-N,CCOC(=O)Oc1ccccc1C(=O)O,-1.998319264,1.9201,210.183
,C9692,CULUWZNBISUWAS-UHFFFAOYSA-N,CN1C[C@@H]2C[C@H](C1)c1n(C2)c(=O)ccc1,0.648400712,0.8351,204.268
,C775,CUMDOJBQHHXABV-UHFFFAOYSA-N,O=C(Cn1ccnc1[N+](=O)[O-])NCc1ccccc1,-2.8099999,2.0218,260.249
,C6140,CUQCMXFWIMOWRP-UHFFFAOYSA-N,CCN(CC(=O)NCc1ccccc1)CC,-2.635475842,2.0355,220.311
,C7928,CUSYXOQIPLRISK-UHFFFAOYSA-N,N/C(=N\c1ccccc1)/N=C(N)N,-1.432979339,2.0071,177.206
,C8414,CUVMRUIWQBLBEX-UHFFFAOYSA-N,[O-][N+](=O)CCCC(=O)N,-0.968676934,0.7521,132.118
,C1970,CUWOZWFDSYIYHL-UHFFFAOYSA-N,CN(CCC=C1c2cc(Cl)ccc2Sc2c1cc(Cl)cc2)C.Cl,-7.324989339,6.6434,386.766
,C8601,CUYAYRDAKAKHLZ-UHFFFAOYSA-N,COc1cc(ccc1OC)CC(=O)N,-0.788092739,1.4319,195.215
,C9344,CUYFBDNSBSBVCF-UHFFFAOYSA-N,C1CCN(CC1)CCc1cccnc1,0.301052841,2.0479,190.285
,C5313,CUYKNJBYIJFRCU-UHFFFAOYSA-N,CCC(=O)Oc1ccc(cc1)OCC(CN1CCN(CC1)c1ccccc1)O,-3.155116966,2.5668,384.469
,C9926,CUZXOMFGZRQMGT-UHFFFAOYSA-M,Nc1cccnc1,1.026331938,1.245,94.1145
,C4523,CVBGTAJIXYROKD-UHFFFAOYSA-N,CC1CCC(N1C)CCCCCC[N+]1(C)CCCC1C.[I-].I,-3.70823875,1.9474,536.317
,C3154,CVBMAZKKCSYWQR-WCGOZPBSSA-N,Cc1cc(C)c2c(c1)c(N)c1c(n2)cccc1,-4.9171696,4.1682,222.285
,C2848,CVBUKMMMRLOKQR-UHFFFAOYSA-N,COC(=O)[C@@H]1[C@@H](OC)[C@@H](C[C@H]2[C@@H]1C[C@H]1N(C2)CCc2c1[nH]c1c2cccc1)OC(=O)c1cc(OC)c(c(c1)OC)OC,-5.289376151,4.1004,578.653
,C6149,CVFSMSTXULJISA-UHFFFAOYSA-N,O=C(c1ccccc1)CC(=O)C,-2.626819944,1.8484,162.185
,C7294,CVGRWCDFXQGLOY-UHFFFAOYSA-N,CCNC1C2CCC(C1c1ccccc1)C2.Cl,-1.893196405,4.3711,251.795
,C6667,CVHZOJJKTDOEJC-UHFFFAOYSA-N,NC(=O)OCCN1OCc2c(C1)ccc(c2)[N+](=O)[O-],-2.29979829,2.0987,267.238
,C1186,CVMNGQUKPNSVQJ-UHFFFAOYSA-N,O=C1NS(=O)(=O)c2c1cccc2,-1.64,1.5283,183.185
,C3477,CVMSKRHCTWCITE-UHFFFAOYSA-N,ONC(=O)C=Cc1ccc(c(c1)Cl)OCCC(C)C,-4.554762463,3.6744,283.751
,C5022,CVOGMKGEVNGRSK-OWOJBTEDSA-N,CC(=O)OC(COc1ccccc1C)COC(=O)C,-3.372281307,1.8686,266.29
,C651,CVQODEWAPZVVBU-UHFFFAOYSA-N,I/C=C/I,-3.22,2.3276,279.846
,C861,CVRALZAYCYJELZ-UHFFFAOYSA-N,CNC(=O)Oc1cc(C)cc(c1)C,-2.5799999,2.4125,179.216
,C2009,CVSUAFOWIXUYQA-UHFFFAOYSA-M,COP(=S)(c1ccccc1)Oc1cc(Cl)c(cc1Cl)Br,-7.137838139,6.0667,412.066
,C7938,CVUGPAFCQJIYDT-CYBMUJFWSA-N,ClC1=C/C(=N/c2ccc(cc2)[O-])/C=C(C1=O)Cl.[Na+],-1.427481034,3.731,290.077
,C101,CVVIOMFTTKEVJM-UHFFFAOYSA-N,Clc1ccc(cc1)[C@@H](C(Cl)(Cl)Cl)c1ccccc1Cl,-6.6199999,6.4955,354.486
,C6363,CVWHRDJDXCEZGH-UHFFFAOYSA-N,NC(=N)c1ccc(cc1)Oc1ccc(cc1)C(=N)N.Cl.Cl,-2.497791915,5.2511,327.209
,C7503,CVXBEEMKQHEXEN-UHFFFAOYSA-N,CC(=CCC1(C)C(=O)NC(=O)NC1=O)C,-1.733645357,1.3726,210.23
,C632,CVXGFPPAIUELDV-UHFFFAOYSA-N,CNC(=O)Oc1cccc2c1cccc2,-3.28,2.9489,201.221
,C9815,CWDMDQXDGXFQFX-UHFFFAOYSA-N,NCC(=O)c1ccccc1.Cl,0.765422006,2.3303,171.624
,C7557,CWERTNSESVSJBE-UHFFFAOYSA-N,OCCNc1ccccc1OC,-1.702249774,1.1724,167.205
,C7110,CWEWBCLCRPGTIO-HSHFZTNMSA-N,CCNC(CC)(CC)CC.Cl,-2.031908912,3.7576,179.731
,C9874,CWGDEZCIDYRJGS-UHFFFAOYSA-N,C[C@H](C(=O)O)ON.Cl,0.849087089,0.8521,141.554
,C6913,CWHOHHKTRJUFTR-UHFFFAOYSA-N,CN1CCCC1c1c(C)[nH]c2c1cccc2,-2.143525768,3.1809,214.306
,C9672,CWJNZABCORLUPT-UHFFFAOYSA-M,NCCCNCCSP(=O)(O)O.O,0.634072327,0.7776,232.238
,C8645,CWJSHJJYOPWUGX-UHFFFAOYSA-N,Cc1[n+](CCCCC[N+](C)(C)C)ccc2c1c1ccccc1[nH]2.[Br-].[Br-],-0.74335038,-2.1985,471.272
,C602,CWPGNVFCJOPXFB-UHFFFAOYSA-N,CC(OC(=O)Nc1cccc(c1)Cl)C,-3.3800001,3.3699,213.661
,C3972,CWRVKFFCRWGWCS-UHFFFAOYSA-N,CC(=CCC1=C(O)c2c(C(=O)C1=O)cccc2)C,-4.124235422,3.0774,242.27
,C7629,CWRYPZZKDGJXCA-UHFFFAOYSA-N,C1CCn2c(CC1)nnn2,-1.639504091,0.3995,138.17
,C298,CWVGVPZANOTPDH-UHFFFAOYSA-L,c1cc2cccc3c2c(c1)CC3,-4.6300001,2.9384,154.208
,C9326,CWWODDIXPTUZOV-ZHACJKMWSA-N,CC[N+](CCOCC[N+]1(C)CCCCC1)(CC)C.[I-].[I-],0.290510428,-3.9133,512.252
,C5296,CXBDYQVECUFKRK-UHFFFAOYSA-N,CSc1cccc(c1)/N=N/N(C)C,-3.170751252,2.9688,195.285
,C1375,CXKCZFDUOYMOOP-UHFFFAOYSA-N,CCCCOC,-0.99000001,1.4329,88.1482
,C5372,CXKIGWXPPVZSQK-UHFFFAOYSA-N,OC(=O)c1cc(Cl)cc(c1)Cl,-3.113731949,2.6916,191.011
,C56,CXKWCBBOMKCUKX-UHFFFAOYSA-M,Clc1ccc(c(c1)Cl)c1c(Cl)ccc(c1Cl)Cl,-7.4299998,6.6206,326.433
,C8536,CXKXDUIIHKJROU-UHFFFAOYSA-N,CN(c1ccc2c(c1)sc1c(n2)ccc(=[N+](C)C)c1)C.[Cl-],-0.865461237,-0.4971,319.852
,C3135,CXMMLPJDUMSKBJ-UHFFFAOYSA-N,FCCCCCCCCCCCC#N,-4.939700144,4.38048,199.308
,C1974,CXOFVDLJLONNDW-UHFFFAOYSA-N,OC(=O)C(=O)[O-].COc1cc2c(cc1OC)CC[NH+](C2CCc1ccc(cc1)Cl)CCc1ccccc1,-7.294495949,4.1049,526.02
,C432,CXOWYJMDMMMMJO-UHFFFAOYSA-N,O=C1NC(=O)NC1(c1ccccc1)c1ccccc1,-4.0999999,2.4272,252.268
,C366,CXOXHMZGEKVPMT-UHFFFAOYSA-N,CCCC(C)(C)C,-4.3600001,2.8326,100.202
,C5252,CXQSCYIVCSCSES-UHFFFAOYSA-N,Clc1ccc2c(c1)N(C(=O)CC(=O)N2C)c1ccccc1,-3.203805288,3.5012,300.74
,C836,CXQWRCVTCMQVQX-LSDHHAIUSA-N,CCC(CC)Cl,-2.6300001,2.4138,106.594
,C8238,CXTOKLCLMGHMRU-UHFFFAOYSA-N,Oc1cc2O[C@H](c3ccc(c(c3)O)O)[C@H](C(=O)c2c(c1)O)O,-1.140221799,1.1863,304.252
,C9792,CXUDIIIEZHHTDL-UHFFFAOYSA-N,CC[N+](c1cccc(c1)O)(C)C.[OH-],0.736953623,1.8022,183.247
,C8213,CXVQSUBJMYZELD-UHFFFAOYSA-N,N#CCNc1ccccc1C(=O)N,-1.171261869,1.49428,175.187
,C9506,CXWWSOPNZQPTJX-UHFFFAOYSA-N,NCCCC(=O)OCC.Cl,0.422044209,1.7907,167.634
,C2885,CXWXQJXEFPUFDZ-UHFFFAOYSA-N,CN(CCC=C1c2ccccc2Sc2c1cccc2)C.Cl,-5.249403342,5.3366,317.876
,C364,CXYFHCXKHPYNBO-UHFFFAOYSA-N,C1CCc2c(C1)cccc2,-4.3699999,2.5654,132.202
,C8621,CXYJOKAZIWXRHN-UHFFFAOYSA-N,CCCCCCNCCSS(=O)(=O)O,-0.773078085,3.164,241.371
,C8085,CXYRUNPLKGGUJF-OZVSTBQFSA-M,O=C1CCC(=O)N1c1ccc(cc1)S(=O)(=O)N,-1.284704094,1.8335,254.262
,C9176,CYBHZZZXLCUSQA-UHFFFAOYSA-N,OC[C@H](c1ccccc1)C(=O)OC1C[C@@H]2[C@@H]3[C@H]([C@H](C1)[N+]2(C)C)O3.[Br-],0.098328457,-1.9745,398.291
,C7747,CYDMQBQPVICBEU-NRDGTNLYSA-N,CC(C(COC(=O)N)(COC(=O)N)C)C,-1.569582916,2.2399,218.25
,C752,CYFLXLSBHQBMFT-UHFFFAOYSA-N,CN([C@@H]1C(=C(C(=O)N)C(=O)[C@]2([C@H]1C[C@H]1C(=C2O)C(=O)c2c([C@@]1(C)O)c(Cl)ccc2O)O)O)C,-2.8800001,1.1393,478.88
,C908,CYGPBPUSLWHJJI-UHFFFAOYSA-N,Nc1ccc(cc1)S(=O)(=O)Nc1oc(c(n1)C)C,-2.4400001,3.4094,267.304
,C4377,CYHOMWAPJJPNMW-DHBOJHSNSA-N,CN(C1CCN(C1=O)c1ccccc1)CCc1ccccc1.Cl.O,-3.824163181,3.7691,348.867
,C9162,CYHOMWAPJJPNMW-UHFFFAOYSA-N,OC1C[C@@H]2CC[C@H](C1)N2C,0.082610111,0.5418,141.211
,C9595,CYJIYXOBSGOMLD-UHFFFAOYSA-N,OC1CC2CCC(C1)N2C,0.569370644,0.5418,141.211
,C2515,CYJRWJOMFVGVDK-UHFFFAOYSA-N,Clc1ccccc1CNC1CCC(CC1)NCc1ccccc1Cl.Cl.Cl,-5.807857701,7.5698,436.246
,C2880,CYKAGXAJJFUETC-LUAWRHEFSA-N,CC1CCCCN1CCCOC(=O)c1ccccc1I,-5.25355,3.6504,387.256
,C4566,CYKYMRWEPMUFSS-UHFFFAOYSA-N,O=C1C=CC=C/C/1=C/NNC(=O)c1ccncc1,-3.683497318,1.6768,241.245
,C6032,CYLWJCABXYDINA-UHFFFAOYSA-N,CCCC(COC(=O)NC(C)C)(CO)C,-2.694613213,2.3106,217.305
,C3020,CYMGNLQIIHMKDZ-UHFFFAOYSA-N,CN1C(CSCC(F)(F)F)Nc2c(S1(=O)=O)cc(c(c2)Cl)S(=O)(=O)N,-5.079840296,4.5928,439.882
,C8134,CYMMEXYPWIUVOF-UHFFFAOYSA-N,N/C(=N\CCC1CCCCCC1)/CSS(=O)(=O)O,-1.243669842,4.0212,294.434
,C8795,CYNYIHKIEHGYOZ-UHFFFAOYSA-N,CN(CCC(=O)c1ccccc1O)C.Cl,-0.521690492,2.3286,229.703
,C1160,CYQFCXCEBYINGO-DLBZAZTESA-N,CCCBr,-1.73,1.7913,122.992
,C2080,CYQFCXCEBYINGO-IAGOWNOFSA-N,CCCCCc1cc(O)c2c(c1)OC([C@H]1[C@@H]2C=C(C)CC1)(C)C,-6.866134057,5.7358,314.462
,C7077,CYSGHNMQYZDMIA-UHFFFAOYSA-N,CCCCCc1cc(O)c2c(c1)OC([C@H]1[C@H]2C=C(C)CC1)(C)C,-2.050419794,5.7358,314.462
,C9678,CYTYCFOTNPOANT-UHFFFAOYSA-N,CN1CCN(C1=O)C,0.635554761,-0.1406,114.146
,C877,CYWFCPPBTWOZSF-UHFFFAOYSA-N,ClC(=C(Cl)Cl)Cl,-2.54,3.0682,165.833
,C5447,CYWGCYGKXOAPHY-UHFFFAOYSA-N,CC(Cc1ccc(cc1)CC(=O)O)C,-3.069570523,2.5122,192.254
,C5034,CZAKAQVNECRGHA-UHFFFAOYSA-N,CNC(=O)c1cccc(c1OC)c1ccccc1,-3.361350006,3.1127,241.285
,C3617,CZCHIEJNWPNBDE-UHFFFAOYSA-N,CC(CNC(c1ccccc1)Cc1ccccc1)C.Cl,-4.420776095,5.4089,289.843
,C1885,CZDBLBODEYKMNV-UHFFFAOYSA-M,CCc1oc2c(c1C(=O)c1cc(I)c(c(c1)I)O)cccc2,-8.019623727,5.141,518.084
,C7793,CZFIROOFEBLGGD-UHFFFAOYSA-N,[O-]C(=O)CCn1c(=O)c2ccccc2n(c1=O)C.[Na+],-1.533541006,-1.1598,270.217
,C7359,CZGCEKJOLUNIFY-UHFFFAOYSA-N,CC(=O)C1(C)SCCS1,-1.839156992,1.7716,162.273
,C746,CZGIRAWWWHPJHM-UHFFFAOYSA-N,Clc1ccc(cc1)[N+](=O)[O-],-2.9200001,2.7714,157.554
,C6082,CZGLGDWLDZFFRP-UHFFFAOYSA-N,CCC(OC(=O)c1ccccc1C(=O)O)(C#C)C,-2.666957661,2.3435,246.259
,C2950,CZGYJVKTYKYBAG-UHFFFAOYSA-N,O=C(Nc1c(C)cccc1Cl)OC1CCC[NH+](C1)C(C)(C)C.[Cl-],-5.161677041,1.6889,361.307
,C5357,CZHLUSGQYSVABS-QXMHVHEDSA-N,Cc1ccc(cc1)SCC/N=C(/CSS(=O)(=O)O)\N,-3.129169766,3.7614,320.451
,C4614,CZIMJLOHMKPSNF-UHFFFAOYSA-L,CCCNC(=O)/C(=C(\c1ccccc1)/C)/C,-3.659476756,3.3971,217.307