Name,Compound ID,InChIKey,SMILES,logS,logP,MW
,C5964,MHPZZZZLAQGTHT-UHFFFAOYSA-N,ClCCN(C(=O)NC1CCS(=O)(=O)CC1)N=O,-2.741853047,1.9671,283.732
,C5182,MHUKGVQDAKFWOK-UHFFFAOYSA-N,CCC(c1ccc(cc1)CC(=O)NO)(C)C,-3.258621583,2.813,221.295
,C2707,MHWLWQUZZRMNGJ-UHFFFAOYSA-N,OC(=O)CN(CC(=O)Nc1c(C)cc(c(c1C)Br)C)CC(=O)O,-5.497005931,1.857,387.226
,C6313,MHXIMOKQHGGJKQ-UHFFFAOYSA-M,C#CCNC(=O)OCC(C(CC)C)(CO)C,-2.527947182,1.7814,227.3
,C608,MHZBPWPPBRJQTI-UHFFFAOYSA-N,CCn1cc(C(=O)O)c(=O)c2c1nc(C)cc2,-3.3699999,1.423,232.235
,C7531,MHZGKXUYDGKKIU-UHFFFAOYSA-N,O=C(C(c1ccccc1)O)OC1CC2CCC(C1)[N+]2(C)Cc1ccc(cc1)C.[Br-],-1.71915775,0.8746,460.404
,C5063,MIHADVKEHAFNPG-UHFFFAOYSA-N,CCC1CN(C)CCC1(OC(=O)CC)c1ccccc1.Cl,-3.338609725,3.9367,311.847
,C6432,MIJRFWVFNKQQDK-UHFFFAOYSA-N,CCCCCCCCCCN,-2.456368766,3.7861,157.296
,C7999,MIJYXULNPSFWEK-GTOFXWBISA-N,[O-][N+](=O)c1cnc(s1)N,-1.359411975,1.7379,145.14
,C8773,MIKKOBKEXMRYFQ-WZTVWXICSA-N,O=C(C(c1ccco1)O)c1ccco1,-0.554196821,1.7889,192.168
,C1768,MIQYLPZRCQLVEI-PSOYPTMXSA-N,O[C@H]1CC[C@]2([C@H](C1(C)C)CC[C@@]1([C@@H]2CC=C2[C@@]1(C)CC[C@@]1([C@H]2CC(C)(C)CC1)C(=O)O)C)C,-9.925642185,7.2336,456.7
,C3122,MIRHIEAGDGUXKL-UHFFFAOYSA-N,CC(=O)Nc1c(I)c(NC(=O)C)c(c(c1I)C(=O)O)I.CNC[C@@H]([C@H]([C@@H]([C@@H](CO)O)O)O)O,-4.959117069,0.294,809.127
,C5882,MISZALMBODQYFT-URVXVIKDSA-N,CCC(=O)O[C@]12C=CC(=O)[C@H]3[C@]42CCN([C@@H]1Cc1c4c(O3)c(cc1)OC)C,-2.791542534,1.723,369.411
,C5744,MITFXPHMIHQXPI-UHFFFAOYSA-N,C#CCC1(CCCCC1)OC(=O)N,-2.883493726,2.5082,181.232
,C4092,MIUUNYUUEFHIHM-UHFFFAOYSA-N,COc1ccc2c(c1)[C@@]13CCCC[C@@H]3[C@H](C2)N(CC1)C.Br,-4.051388041,4.2794,352.309
,C4449,MIWKMBLORLMHOJ-UHFFFAOYSA-N,OC(=O)C(c1ccc2c(c1)nc(o2)c1ccc(cc1)Cl)C,-3.764027198,4.3363,301.724
,C2939,MIZIOHLLYXVEHJ-UHFFFAOYSA-N,CC(COc1ccc(cc1)C(c1ccc(cc1)OCC(O)C)(C)C)O,-5.17919259,3.5317,344.445
,C8263,MJBCABRMQNZIRC-UHFFFAOYSA-N,CCC(C(=O)N)C(C)C,-1.123606333,1.8542,129.2
,C9244,MJCJFUJXVGIUOD-VIFPVBQESA-N,OCCN(Cc1ccccc1)CCO,0.207692843,0.4732,195.258
,C2430,MJELWGXEQOCGGW-UHFFFAOYSA-N,CCOc1ccc(cc1OC)Cc1[nH+]c(C)cc2c1cc(OC)c(c2)OC.[Cl-],-5.955969577,0.9816,403.899
,C1523,MJEOKLXWKIUJQD-UHFFFAOYSA-N,OC(=O)C[C@](C(C(=O)O)(C)C)(C(=O)O)C,-0.28999999,0.6628,218.204
,C6359,MJFJKKXQDNNUJF-UHFFFAOYSA-N,CCCCOc1ccccc1NC(=O)C,-2.498316819,2.8969,207.269
,C7056,MJIWQHRXSLOUJN-UHFFFAOYSA-N,NC(=O)c1cnc2n(c1=O)C(C)CCC2,-2.056865035,0.9398,207.229
,C3184,MJKVTPMWOKAVMS-UHFFFAOYSA-N,CN1CCCC(C1)CC1c2ccccc2Sc2c1cccc2,-4.881986983,4.9529,309.468
,C9923,MJNIWUJSIGSWKK-UHFFFAOYSA-N,Nc1nccnn1,1.017308239,0.035,96.0907
,C8478,MJODPLQTHSBELW-UHFFFAOYSA-M,O=c1oc2ccccc2cc1O,-0.919866271,1.4986,162.142
,C1837,MJTGQALMWUUPQM-UHFFFAOYSA-N,CCCC(=O)OCC(C(C(Cn1c2cc(C)c(cc2nc2c1nc(=O)[nH]c2=O)C)OC(=O)CCC)OC(=O)CCC)OC(=O)CCC,-8.51203745,3.7288,656.723
,C3602,MJVAVZPDRWSRRC-UHFFFAOYSA-N,CCCCN1C(=NC(=O)C(C1=O)(CC)CCC(C)C)[O-].[Na+],-4.442003452,2.1479,304.36
,C7650,MJZJYWCQPMNPRM-UHFFFAOYSA-N,Clc1cccc(c1)C(=O)N,-1.626226743,2.1392,155.582
,C716,MJZULVRFNYHKTJ-UHFFFAOYSA-L,O=C1C=C(C)C(=O)c2c1cccc2,-3.03,2.0119,172.18
,C3762,MKELYWOVSPVORM-DTWKUNHWSA-N,NC1=NC(N(C(=N1)N)OCCCOc1cc(Cl)c(cc1Cl)Cl)(C)C,-4.278182885,3.2381,394.684
,C4830,MKHNHUAKANLVLX-UHFFFAOYSA-N,C[N+]1(CCOCC[N+]2(C)CCCC2)CCCC1.[I-].[I-],-3.519579505,-4.5906,496.21
,C831,MKJDHGYSDAFVSZ-UHFFFAOYSA-L,CCC1(C(=O)NC(=O)NC1=O)C1=C[C@@H]2C[C@H](C1)CC2,-2.6400001,2.1528,262.304
,C9606,MKLLVYALIHGMKY-UHFFFAOYSA-N,Cc1cc(C)c(cc1[N+](C)(C)C)O.[Br-],0.584734453,-0.7903,260.171
,C9329,MKLXZHHTNGKIQR-UHFFFAOYSA-N,CCC[N+](CCC1CC[N+](CC1)(C)CCC)(C)C.[I-].[I-],0.292185504,-2.9037,510.279
,C2665,MKMDMYXUXRAIMQ-UHFFFAOYSA-N,O=C1CC2(C(=O)N1C)c1ccccc1CCc1c2cccc1,-5.54954322,2.3979,291.344
,C7121,MKMYPTLXLWOUSO-UHFFFAOYSA-N,OS(=O)(=O)SCCNCCNc1ccccc1,-2.024848804,2.7688,276.376
,C3286,MKOSACFREHVWRT-UHFFFAOYSA-N,OC(CN1CCN(CC1)c1ccccc1)COc1cc(C)ccc1C(C)C.Cl.Cl,-4.752217708,5.2872,441.434
,C4157,MKRZGVCMTCPWHY-UHFFFAOYSA-N,OC(c1ccccc1)CC1CCCC(N1C)CC(=O)c1ccccc1.Cl,-2.753235909,4.9759,373.916
,C3121,MKTOIPPVFPJEQO-UHFFFAOYSA-N,COc1cc2c(cc1OC)CC[NH+](C2CCc1ccccc1Cl)C.[Br-],-4.959957178,1.6751,426.775
,C9674,MKUXAQIIEYXACX-UHFFFAOYSA-N,Oc1cccc(c1)[N+](C)(C)C.[Br-],0.634285567,-1.4071,232.118
,C8549,MKUZQGZKPPDJFJ-UHFFFAOYSA-N,O=C(OOC(=O)CCC(=O)O)CCC(=O)O,-0.847068476,-0.2826,234.16
,C6918,MKXKFYHWDHIYRV-UHFFFAOYSA-N,Nc1nc(=O)c2c([nH]1)n(COCCO)cn2,-2.14306878,-0.7506,225.205
,C1868,MKXWZVYEVYAFOZ-UHFFFAOYSA-N,C1CCCCCC(C1)NCC1CCC(CC1)CNC1CCCCCCC1.Cl.Cl,-8.178152151,8.5836,435.557
,C3572,MKXYHEQCWDIQHQ-PSXQHBSSSA-N,O=C(C(C)C)Nc1ccc(c(c1)C(F)(F)F)[N+](=O)[O-],-4.465769496,3.8043,276.212
,C2533,MKXZASYAUGDDCJ-CGTJXYLNSA-N,O=C(COc1c(ccc(c1C(=O)OC(C)C)C)C(C)C)OCCN1CCCCC1,-5.776798648,4.0294,405.528
,C2505,MKXZASYAUGDDCJ-NJAFHUGGSA-N,COc1cc(ccc1OC)/C(=[NH+]\OCC(=O)N(c1ccccc1)CC[NH+]1CCOCC1)/c1nccc2c1cc(OC)c(c2)OC.[Cl-].[Cl-],-5.824508111,-3.3557,687.61
,C4772,MKYRMMMSZSVIGD-UHFFFAOYSA-N,COc1ccc2c(c1)[C@]13CCCC[C@H]3[C@@H](C2)N(CC1)C,-3.560295626,3.3213,271.397
,C4773,MLAWCOBYMMKWMA-NSLJXJERSA-N,COc1ccc2c(c1)[C@@]13CCCC[C@@H]3[C@H](C2)N(CC1)C,-3.560295626,3.3213,271.397
,C7588,MLAXRSNOPDZUTC-UHFFFAOYSA-N,c1ncc2c(c1)scc2,-1.674559292,2.2963,135.186
,C8361,MLCPCDOOBNXTFB-UHFFFAOYSA-N,O/N=C/1\CCC/C(=N\O)/C1=O,-1.023255269,0.3998,156.139
,C6045,MLDZAGGFWSAWHF-UHFFFAOYSA-N,OC(c1cccc2c1cccc2)CN1CCCCC1.Cl,-2.686239093,4.099,291.816
,C4910,MLFHJEHSLIIPHL-UHFFFAOYSA-N,O=C(c1ccccc1)Cc1ccccc1C(=O)O,-3.44719057,2.8102,240.254
,C6972,MLHBDHJHNDJBLI-UHFFFAOYSA-N,CCC(=O)c1cc(OC)ccc1O,-2.106542904,1.9935,180.2
,C1104,MLKXDPUZXIRXEP-MFOYZWKCSA-N,CC(CCOC(=O)C)C,-1.92,1.5956,130.185
,C4753,MLNKXLRYCLKJSS-RMKNXTFCSA-N,CCN(C(CC(C)C)COC(=O)c1ccc(cc1)N)CC,-3.572804775,3.7633,292.416
,C1680,MLOMFNIJYZFUBS-ISLYRVAYSA-N,OC(=O)CC1=C(C)/C(=C/c2ccc(cc2)S(=O)C)/c2c1cc(F)cc2	,-4.50 ,5.2312,356.411
,C5740,MLRVZFYXUZQSRU-UHFFFAOYSA-N,O/N=C/C(=O)c1ccccc1,-2.886266573,1.3293,149.147
,C4837,MLUCVPSAIODCQM-NSCUHMNNSA-N,CN(Cc1ccccc1)/N=N/c1ccc(cc1)C(=O)N,-3.514415714,3.6165,268.314
,C685,MLYYVTUWGNIJIB-BXKDBHETSA-N,CCCCCCCl,-3.1199999,2.8055,120.62
,C1587,MLZCGCGQWWRMMX-UHFFFAOYSA-N,C/C=C/C=O,0.31999999,0.7614,70.0898
,C5076,MMAGCXHWOMQWKW-LIWIJTDLSA-N,O=C(N[C@@H]1C(=O)N2[C@@H]1SCC(=C2C(=O)O)CSc1nnc(s1)C)Cn1cnnn1,-3.327524266,-0.3073,454.507
,C6489,MMBKLVFHUYWVND-UHFFFAOYSA-N,ClCCN(C(=O)NC(C(=O)O)(C)C)N=O,-2.419991387,1.1723,237.641
,C6593,MMBYJYAFFGKUDC-UHFFFAOYSA-N,CN1[C@@H]2CC[C@H]1CC(C2)OC(=O)c1ccccc1.Cl,-2.34953962,3.2085,281.778
,C4842,MMDHGCAJSAUDDC-UHFFFAOYSA-N,COc1c(OC)cc(cc1OC)C(=O)N1CCCCCO1,-3.507945568,2.208,295.331
,C7573,MMISGYGYGXBMMS-UHFFFAOYSA-N,O=C1N=C(c2c1cccc2)N,-1.687674593,0.6816,146.146
,C1990,MMJRNJZURLUGLO-UHFFFAOYSA-N,CCOc1nc(ncc1C(=O)O)N1CCN(CC1)CCC(c1ccccc1)(c1ccccc1)c1ccccc1,-7.222665778,5.1231,522.637
,C6157,MMKOENPMBPNDHX-UHFFFAOYSA-N,O=C(c1ccc(cc1)[N+](=O)[O-])C=NN1CCCC1,-2.620821619,2.3202,247.25
,C5260,MMLWJCIXKYNCNI-UHFFFAOYSA-N,CCCC(COC(=O)NCC(=C)C)(CO)C,-3.196089096,2.4783,229.316
,C8556,MMMNTDFSPSQXJP-UHFFFAOYSA-N,[O-][N+](=O)c1ncc(n1C)CCO,-0.837192807,0.3863,171.154
,C6326,MMNICIJVQJJHHF-UHFFFAOYSA-N,Oc1ccc(cc1O)CCNCC1CCc2c(N1)cccc2.Br.Br,-2.519941242,5.1019,460.203
,C4695,MMQUBQQEPRRSHO-UHFFFAOYSA-L,[O-]C(=O)CC(C(=O)O)(CC(=O)O)O.C[NH+](CCOC(c1ccccc1C)c1ccccc1)C,-3.611103604,-0.3377,461.505
,C2418,MMURVNDSFNJHAM-OWOJBTEDSA-N,O=C(C(c1ccsc1)C1CCCCC1)OCCN1CCCCCC1,-5.982029001,4.7691,349.531
,C9286,MMURVNDSFNJHAM-UHFFFAOYSA-N,CC[N+](CCCc1ccc(cc1)[N+](CC)(CC)C)(CC)C.[I-].[I-],0.262552892,-1.9095,546.311
,C5773,MMWJCCRTDOVKIH-UHFFFAOYSA-N,NC(=N)c1ccc(cc1)/C=C/c1ccc(cc1)C(=N)N,-2.868145421,4.0252,264.325
,C5772,MMYHZEDBTMXYAF-UHFFFAOYSA-N,NC(=N)c1ccc(cc1)C=Cc1ccc(cc1)C(=N)N,-2.868266715,4.0252,264.325
,C5636,MNAHXOPJHCWFKN-JRUHLWALSA-N,OCCOc1ccc(cc1C(=O)NC)c1ccccc1,-2.952032793,2.4752,271.311
,C1896,MNDIARAMWBIKFW-UHFFFAOYSA-N,Brc1cc(Br)c(c(c1)c1cc(Br)cc(c1O)Br)OP(=O)(O)O,-7.895697951,5.5807,581.771
,C8323,MNEFHXBPYCMINU-UHFFFAOYSA-N,O=[NH+]/C=c\1/n(COCCCc2ccccc2)ccn1C.[Cl-],-1.075098605,-2.6964,309.791
,C487,MNILRDOPAMDKIP-UHFFFAOYSA-N,CCCCCCBr,-3.8099999,2.9616,165.071
,C2071,MNJRLBZACAATFN-UHFFFAOYSA-N,CCC(C(c1ccccc1)(c1ccccc1)C(C[NH+](C)C)C)OC(=O)c1ccccc1.[Cl-],-6.913232985,1.3929,452.028
,C7227,MNMGNPZLUMHSKK-UHFFFAOYSA-N,CCNC(C(C)(C)C)(C)C.Cl,-1.936562048,3.6135,179.731
,C6255,MNOILHPDHOHILI-UHFFFAOYSA-N,C#CCOc1ccc(cc1Cl)CC(=O)NO,-2.562682655,1.7908,239.655
,C3537,MNULEGDCPYONBU-ZZTRBZRQSA-N,Oc1ccc2c(c1)C1(C)CCN(C(C2)C1C)CCc1ccccc1.Br,-4.49404237,5.0551,402.368
,C7974,MNVLQHLXKIKIFO-UHFFFAOYSA-N,CN(C(=S)N(C)C)C,-1.389080728,0.3945,132.227
,C1749,MNWSGMTUGXNYHJ-UHFFFAOYSA-N,CC[C@@H]1/C=C/C=C/C[C@H](C)[C@@H](O)[C@](C)(O)C(=O)[C@H](C)[C@@H](O)[C@H](C)C(=O)[C@@H]([C@H]([C@@H](/C=C/C(=O)O[C@H]2[C@H]([C@@H](CC1)O[C@@]1(CC[C@H]([C@H](O1)C[C@@H](O)C)C)[C@H]2C)C)C)O)C,-10.92140987,5.8826,791.062
,C3871,MOCFGJGEKIOYGM-NKPNRJPBSA-N,CCN(CCCNc1nc(NCCCN(CC)CC)nc(n1)Cl)CC.Cl.Cl,-4.191870982,4.5626,444.874
,C7443,MOCKWYUCPREFCZ-UHFFFAOYSA-N,COc1ccccc1C(=O)N,-1.781511211,1.4944,151.163
,C7338,MODKMHXGCGKTLE-UHFFFAOYSA-N,CC([NH2+]CC(=O)N/N=C/c1ccc(o1)[N+](=O)[O-])C.[O-]C(=O)C,-1.854877097,-0.72,314.295
,C959,MOFVSTNWEDAEEK-UHFFFAOYSA-M,NNC(=O)Nc1ccccc1,-2.3299999,1.846,151.166
,C7959,MOISIYYVKXTQOF-UHFFFAOYSA-N,CC(=O)NCCc1ccccc1,-1.408497606,1.7561,163.216
,C1833,MOKBCQAPOUEXMW-UHFFFAOYSA-N,[O-]S(=O)(=O)CCCCN1c2ccc3c(c2C(/C/1=C\C=C\C=C\C=C\C1=[N+](CCCCS(=O)(=O)[O-])c2c(C1(C)C)c1ccccc1cc2)(C)C)cccc3.[Na+],-8.580292169,10.5557,774.963
,C6585,MOPIFNSMNXBREW-UHFFFAOYSA-N,OC(c1ccccc1)CNCC1CCc2c(N1)cccc2.Cl,-2.354360498,4.0674,318.841
,C1969,MORNELSZOBVPQN-UHFFFAOYSA-M,CN(CCCN1c2ccccc2Sc2c1cc(cc2)C(C)(C)C)C.Cl,-7.353609903,6.4055,376.986
,C1953,MORVOYPJRATMRS-UHFFFAOYSA-N,CCCCCCCNc1c2ccccc2nc2c1cccc2,-7.477457012,5.8433,292.418
,C8552,MOTVHOCKVVIRIG-UHFFFAOYSA-N,C[N+]1(CCCC1)C1CSSC1.[I-],-0.845299336,-1.0468,317.254
,C6722,MOUAPRKJJUXEIE-UHFFFAOYSA-N,ClCCCn1cnc2c1c(=O)n(C)c(=O)n2C,-2.263280914,0.0626,256.689
,C5143,MOYKHGMNXAOIAT-UNTFVMJOSA-N,OCC(COc1cc(ccc1C)C(C)C)O,-3.282643412,1.8504,224.296
,C7269,MOYRNPQPENKGPY-QUQDROCISA-N,Clc1ccc(cc1)N1C(=NC(=NC1(C)C)N)N.Cl,-1.915589749,2.6643,288.176
,C838,MPCILJQVDVSLSZ-UHFFFAOYSA-N,[O-][N+](=O)O[C@H]1CO[C@H]2[C@@H]1OC[C@@H]2O[N+](=O)[O-],-2.6300001,-0.0158,236.136
,C5525,MPCPSVWSWKWJLO-UHFFFAOYSA-N,CN1CC[C@@]23[C@H]([C@H]1Cc1c3cc(c(c1)C)O)CCCC2.Cl,-3.022973235,4.1287,307.858
,C2861,MPCWIZAWGSZCIC-UHFFFAOYSA-N,COP(=S)(Oc1ccc(c(c1)C(C)C)[N+](=O)[O-])OC,-5.275190451,4.7881,305.287
,C8946,MPDVOQWXTLMVIE-UHFFFAOYSA-N,OC(c1ccc(cc1)O)CNC(C)C,-0.31152481,1.8145,195.258
,C4232,MPEKZXIZMHBUPD-UHFFFAOYSA-N,ClCCN(C(=O)NC(C(=O)O)C1CCCCC1)N=O,-3.937354154,2.3426,291.731
,C9715,MPEOPBCQHNWNFB-UHFFFAOYSA-N,OC(c1ccc(c(c1)C)O)C([NH3+])C.[Cl-],0.662155556,-2.6316,217.693
,C2347,MPFKIKJXEMXMNX-UHFFFAOYSA-N,CCN(CCC(c1cccc2c1cccc2)(C(=O)N)CC=C(C)C)CC,-6.106277143,5.3514,352.513
,C566,MPHPHYZQRGLTBO-NSHDSACASA-N,Clc1ccccc1I,-3.54,2.9446,238.453
,C9822,MPMDMUROZIYIIM-UHFFFAOYSA-N,CC(C#C)OC(=O)CCC(=O)O,0.769132314,0.4161,170.163
,C567,MPNVQOYJNGVWGN-UHFFFAOYSA-N,CCC[C@@H]1C(=O)n2n(C1=O)c1cc(C)ccc1nc2N(C)C,-3.54,2.4847,300.356
,C2845,MPNVSKLDSKNFBT-SOFGYWHQSA-N,Cc1ccc(c(c1)C)n1c(C)nc2c(c1=O)cccc2,-5.291809401,3.3109,264.322
,C2041,MPPPKRYCTPRNTB-UHFFFAOYSA-N,N#CC(c1cccc2c1cccc2)(CC[NH+](CC=C(C)C)CC=C(C)C)C.[Cl-],-7.035312692,1.83248,396.996
,C4309,MPQHRPVQJUEINF-UHFFFAOYSA-N,CCCCOc1ccc(cc1C)/C=C/C(=O)NO,-3.86398532,3.0834,249.306
,C935,MPSCILDWLMBJKC-UHFFFAOYSA-N,CCCCBr,-2.3699999,2.1814,137.018
,C4062,MPWSEBACFSFMLW-UHFFFAOYSA-N,COc1ccc2c(c1)c(N)c1c(n2)cccc1,-4.067456399,3.56,224.258
,C7582,MPXOQEAPYGISHY-UHFFFAOYSA-N,CC1(C)CN1P(=O)(N1CC1(C)C)N1CC1(C)C,-1.678881385,2.1908,257.312
,C6937,MPYXTIHPALVENR-UHFFFAOYSA-N,CCCC(COC(=O)N)(COC(=O)NC)C,-2.133015707,2.3353,232.277
,C7248,MQGDTPQAUCBQDD-UHFFFAOYSA-L,CCC(=O)c1ccc(cc1)NC,-1.924971644,2.394,163.216
,C9252,MQHNKCZKNAJROC-UHFFFAOYSA-N,Oc1cc(O)cc(c1)O.O.O,0.211711053,0.6748,162.141
,C3494,MQHYXXIJLKFQGY-UHFFFAOYSA-N,C[N+]1(CCOCC[N+]2(C)CCCCC2)CCCCC1.[I-].[I-],-4.540578076,-3.8104,524.263
,C5030,MQIUGAXCHLFZKX-UHFFFAOYSA-N,CCCOC(=O)c1ccccc1C(=O)OCCC,-3.365026701,2.8202,250.29
,C4909,MQJKPEGWNLWLTK-UHFFFAOYSA-N,CC1CCN(CC1)CCCC(=O)c1ccc(cc1)F.Cl,-3.447468131,4.2604,299.811
,C227,MQJPEILRVHPFGH-UHFFFAOYSA-N,CCCCCCCCOC(=O)c1ccccc1C(=O)OCCCCCCCC,-5.1100001,6.7212,390.556
,C772,MQOBSOSZFYZQOK-UHFFFAOYSA-N,Nc1ccc(cc1)S(=O)(=O)c1ccc(cc1)N,-2.8199999,3.927,248.301
,C2822,MQOKYEROIFEEBH-UHFFFAOYSA-N,CN(CCOc1c(C(=O)OCc2ccccc2)c(C)ccc1C(C)C)C,-5.325503446,4.4158,355.471
,C3490,MQTOSJVFKKJCRP-BICOPXKESA-N,Clc1ccc(cc1)C(=O)c1ccc(cc1)OC(C(=O)O)(C)C,-4.54393589,3.813,318.752
,C4534,MQVMITUCTLYRNV-UHFFFAOYSA-N,Nc1ccc2c(c1)c(c1ccccc1)[n+](c1c2ccc(c1)N)C.[Br-],-3.701017884,1.8153,380.281
,C3066,MQWCXKGKQLNYQG-LJGSYFOKSA-N,CC[C@H]1OC(=O)[C@H](C)[C@@H](O[C@@H]2O[C@@H](C)[C@@H]([C@](C2)(C)OC)O)[C@H](C)[C@@H](O[C@@H]2O[C@H](C)C[C@@H]([C@H]2O)N(C)C)[C@](C[C@H](CN([C@@H]([C@H]([C@]1(C)O)O)C)C)C)(C)O,-5.023710754,1.8386,748.984
,C6860,MQXOLBLJDLXICK-UHFFFAOYSA-L,CCCCCCOCC(CO)O,-2.170596949,0.9365,176.253
,C1400,MQYXUWHLBZFQQO-QGTGJCAVSA-N,C[C@@H]1CC[C@H](CC1)O,-0.88,1.5574,114.185
,C8228,MRABZSNALSVEMX-UHFFFAOYSA-N,[O-]S(=O)c1ccccc1CSSCc1ccccc1S(=O)[O-].[Na+].[Na+].O.O.O,-1.150665447,4.7827,472.528
,C1752,MRBDMNSDAVCSSF-UHFFFAOYSA-N,CC(=C)[C@@H]1CC[C@]2([C@H]1[C@H]1CC[C@H]3[C@@]([C@]1(C)CC2)(C)CC[C@@H]1[C@]3(C)CC[C@@H](C1(C)C)O)C,-10.84482232,8.0248,426.717
,C7014,MRBFGEHILMYPTF-UHFFFAOYSA-N,OCC(Nc1nc(nc(n1)N1CC1)N1CC1)CO,-2.081733093,-1.5203,252.273
,C3258,MRBRHCRUXKHKKI-UHFFFAOYSA-N,Cc1ccc(cc1)N(c1cccc(c1)O)CC1=NCCN1,-4.787448142,2.6048,281.352
,C9234,MRGGCOJFSFIOSQ-UHFFFAOYSA-N,N1CCN(CC1)c1ncccn1,0.19011219,0.28,164.208
,C526,MRLUSTSQCUMQPV-UHFFFAOYSA-N,CCN1C(=O)c2ccccc2Oc2c1cccc2,-3.6800001,3.524,239.269
,C3665,MRNUOMIAYMSZOS-UHFFFAOYSA-N,CC[NH+](CCOC(=O)Cc1ccccc1c1ccccc1)CC.[Cl-],-4.374115872,-0.632,347.879
,C1867,MROJXXOCABQVEF-UHFFFAOYSA-N,N(CC1CCC(CC1)CNCCC1CCCCC1)CCC1CCCCC1.Cl.Cl,-8.178152151,8.2986,435.557
,C7564,MRRBSAJNXHXCBL-UHFFFAOYSA-N,ClCCN(C(C)C)CCCl.Cl,-1.696147721,2.9764,220.568
,C7434,MRSXAJAOWWFZJJ-UHFFFAOYSA-M,OC(=O)Cc1ccc(cc1)NC(=O)C,-1.788943681,1.3451,193.199
,C9125,MRUDNSFOFOQZDA-UHFFFAOYSA-N,O=CNc1cc(ccc1O)[As](=O)(O)O,0.013003629,-0.7696,261.064
,C8637,MRWQRJMESRRJJB-UHFFFAOYSA-N,CC(=O)Nc1nnc(s1)S(=O)(=O)[NH-].[Na+],-0.757351556,1.3912,244.227
,C8248,MRWXACSTFXYYMV-FDDDBJFASA-N,OC(=O)c1c(Cl)cccc1Cl,-1.130907122,2.6916,191.011
,C5036,MSCCTZZBYHQMQJ-AZAGJHQNSA-N,CCCCCCn1c(=O)c2n(C)cnc2n(c1=O)C,-3.35881147,1.014,264.324
,C8881,MSDZXGWQPGEHBJ-UHFFFAOYSA-N,OC[C@H]1O[C@H]([C@@H]([C@@H]1O)O)n1cnc2c1ncnc2,-0.40179674,-1.5622,252.227
,C1720,MSIJLVMSKDXAQN-UHFFFAOYSA-N,C[C@@H](CCC[C@]1(C)CCc2c(O1)c(C)c(c(c2C)OC(=O)c1cccnc1)C)CCC[C@@H](CCCC(C)C)C,-13.79857364,9.7488,535.8
,C5738,MSJLJWCAEPENBL-UHFFFAOYSA-N,CN(c1c(=O)[nH]c(=O)n(c1C)C1CCCCC1)C,-2.889699321,1.4162,251.325
,C4832,MSJMDZAOKORVFC-SEPHDYHBSA-L,CN1CCN(CC1)C(c1ccc(cc1)Cl)c1ccccc1.Cl,-3.519400706,4.3546,337.287
,C3217,MSLICLMCQYQNPK-UHFFFAOYSA-N,CCOCCN(C(=O)C(Cl)Cl)Cc1ccc(cc1)CN(C(=O)C(Cl)Cl)CCOCC,-4.848992726,4.0242,502.259
,C9843,MSXVEPNJUHWQHW-UHFFFAOYSA-N,[O-]C(=O)/C=C/C(=O)[O-].[Na+].[Na+],0.795782312,-2.9576,160.036
,C697,MTBZIGHNGSTDJV-UHFFFAOYSA-N,CC(=O)Nc1ccc(cc1)Br,-3.0799999,2.4805,214.059
,C1571,MTCJZZBQNCXKAP-KSYZLYKTSA-N,CCC(O)(C)C,0.079999998,1.1673,88.1482
,C618,MTCPZNVSDFCBBE-UHFFFAOYSA-N,CCOP(=S)(N1C(=O)c2c(C1=O)cccc2)OCC,-3.3499999,3.1686,299.283
,C9598,MTENFETUMWYLRL-UHFFFAOYSA-N,OC[C@H]1O[C@H]([C@@H]([C@@H]1O)O)c1[nH]nc2c1[nH]cnc2=O,0.57149427,-2.1998,268.226
,C64,MTEQLYDOCFPCAX-UHFFFAOYSA-N,Clc1cc(Cl)c(c(c1)Cl)c1c(Cl)cccc1Cl,-7.3200002,6.6206,326.433
,C5041,MTFCPNHRBINLRQ-UHFFFAOYSA-N,NC1=NCC(O1)CSc1ccc(cc1)Cl,-3.355723557,2.2815,242.725
,C8375,MTLMVEWEYZFYTH-UHFFFAOYSA-N,Clc1nccc(n1)N(C)C,-1.001659316,1.196,157.601
,C6342,MTRNNCLQPVCDLF-UHFFFAOYSA-N,CC(OC(=O)c1ccccc1)CNC1CCCCC1.Cl,-2.511541541,4.3471,297.82
,C132,MTRZHSVFAGKMOA-UHFFFAOYSA-N,Clc1cc(Cl)c(c(c1)Cl)c1ccccc1,-6.1399999,5.3138,257.543
,C6436,MTTYXGPMZKRTCI-UHFFFAOYSA-N,N(Cc1ccccc1)CCNCc1ccccc1.CC(=O)O.CC(=O)O,-2.45304614,3.5296,360.447
,C8033,MTXSIJUGVMTTMU-JTQLQIEISA-N,OC(=O)CNc1ccc(cc1)[N+](=O)[O-],-1.324131932,1.6875,196.16
,C7362,MTZAUZNQAMNFME-UHFFFAOYSA-N,C#CC(c1ccccc1)OC(=O)N,-1.837302452,2.1565,175.184
,C9838,MTZBBNMLMNBNJL-UHFFFAOYSA-N,C1CC[C@H](NC1)c1cccnc1,0.789852797,2.225,162.232
,C9193,MTZQAGJQAFMTAQ-UHFFFAOYSA-N,COc1cc(C)oc(=O)c1,0.122957029,0.9568,140.137
,C496,MUAYIAAIKPJCDG-UHFFFAOYSA-N,O=C(c1cc(c(cc1O)Cl)S(=O)(=O)N)Nc1c(C)cccc1C,-3.79,4.4162,354.809
,C963,MUBZPKHOEPUJKR-UHFFFAOYSA-N,CCOC(=O)c1ccccc1,-2.3199999,1.8633,150.175
,C2420,MUCZHBLJLSDCSD-UHFFFAOYSA-N,CCOC(=O)C(c1ccc2c(c1)nc(o2)c1ccc(cc1)Cl)C,-5.980405219,4.8148,329.778
,C1595,MUDHKEQEBJQRRG-KPKJPENVSA-N,OC(=O)C(=O)O,0.38,-0.8444,90.0349
,C8320,MUDUBLGOHBPCKH-LLINQDLYSA-N,CC(OP(=O)(OC(C)C)F)C,-1.077643927,2.914,184.146
,C6078,MUDZWKBXWRGJJH-UHFFFAOYSA-N,CN(c1ccc(cc1)/C=N/NC(=S)N)C,-2.667531102,2.0109,222.31
,C2502,MUIGVZRUQAGELU-UHFFFAOYSA-N,ClCCN([C@H]1CC[C@@H]2[C@]1(C)CC[C@H]1[C@H]2CCC2=CC(=O)CC[C@]12C)CCCl,-5.835763234,5.6665,412.436
,C3561,MUKSMBAVCDPKRC-UHFFFAOYSA-N,OC(=O)C(=O)[O-].COc1cccc2c1n(CC[NH+](C)C)c1c2cccc1,-4.475179496,-0.2315,358.388
,C6151,MULDUPLDVOLZSA-UHFFFAOYSA-N,CN1CCN(C(C1)C(=O)Nc1ccccc1C)C.ON=O.ON=O,-2.626349286,1.4121,341.363
,C713,MUMGGOZAMZWBJJ-DYKIIFRCSA-N,Cc1ccc2c(c1)Oc1ncc(cc1C(=O)N2C)N,-3.04,3.0007,255.272
,C5304,MUMQYXACQUZOFP-GFCCVEGCSA-N,NC(=O)OCCCN(c1ccc(cc1)C)CCCOC(=O)N,-3.162092979,3.1728,309.361
,C448,MUPFEKGTMRGPLJ-GKSUOFJESA-N,O=C1CC[C@]2(C(=C1)CC[C@@H]1[C@@H]2CC[C@]2([C@H]1CC[C@@H]2O)C)C,-4.02,3.8792,288.424
,C117,MUPNXGNOIBYHSG-UHFFFAOYSA-N,ClC[C@H](N1C(=O)c2c(C1=O)cccc2)SP(=S)(OCC)OCC,-6.3400002,4.4667,393.846
,C1505,MUQNGPZZQDCDFT-JNQJZLCISA-N,OC[C@H]1O[C@]([C@@H]([C@@H]1O)O)(CO)O[C@H]1O[C@@H](CO[C@H]2O[C@@H](CO)[C@@H]([C@H]([C@@H]2O)O)O)[C@@H]([C@H]([C@@H]1O)O)O,-0.41,-7.5714,504.437
,C4627,MUWDJVKYGSDUSH-KALLACGZSA-N,CCN(CCOC(=O)C1(CCCC1)c1ccccc1)CC.Cl,-3.654516525,4.1854,325.873
,C2817,MVCIBABYNNIPFI-UHFFFAOYSA-N,ClCC(=O)[C@@]12OC(O[C@@H]1C[C@@H]1[C@]2(C)C[C@H](O)[C@]2([C@H]1CCC1=CC(=O)CC[C@]21C)F)(C)C,-5.327968388,3.8893,454.959
,C4951,MVFGUOIZUNYYSO-UHFFFAOYSA-N,CCOC(=O)[C@@]1(CCC=C[C@H]1N(C)C)c1ccccc1.Cl,-3.419247081,3.5697,309.831
,C7697,MVHSJESGFPGIJJ-UHFFFAOYSA-N,Clc1ccc(cc1)P(=O)(O)O,-1.599664328,1.143,192.537
,C6176,MVNBKZSYYRLNSC-UHFFFAOYSA-N,CCCNC(C(=O)Nc1ccccc1C)C,-2.609848753,2.7855,220.311
,C6633,MVPOUIVDKJJYLB-UHFFFAOYSA-N,CN1CC2CCC(C1)N2C(=O)c1ccccc1[N+](=O)[O-],-2.325875495,1.9124,275.303
,C3833,MVPPADPHJFYWMZ-UHFFFAOYSA-N,OC(=O)C(=O)O.CCCOc1c(OC)cccc1C(=O)NCCCN(CC)CC,-4.220954373,2.4922,412.477
,C8004,MVQVNTPHUGQQHK-UHFFFAOYSA-N,ClC(C(=O)NC(=O)N)C(C)C,-1.358325026,1.5359,178.617
,C931,MVWHGTYKUMDIHL-UHFFFAOYSA-N,Clc1ccccc1,-2.3800001,2.34,112.557
,C1637,MVXVYAKCVDQRLW-UHFFFAOYSA-N,OCc1cccnc1,0.95999998,0.5739,109.126
,C19,MVXWWXUKRGWSLU-UHFFFAOYSA-N,Clc1cc(Cl)c(cc1c1cc(Cl)c(cc1Cl)Cl)Cl,-8.5600004,7.274,360.878
,C7661,MWAYRGBWOVHDDZ-UHFFFAOYSA-N,c1cnc2c(c1)cc[nH]2,-1.61754843,1.5629,118.136
,C3562,MWBPRDONLNQCFV-UHFFFAOYSA-N,CCCCOc1nc(OCCCC)cc(c1)C(=O)N[NH+](C)C.[Cl-],-4.474452406,-1.3764,345.865
,C6644,MWBWWFOAEOYUST-UHFFFAOYSA-N,CCOC(=O)c1ccc(c(c1)OC)O,-2.318053596,1.5775,196.2
,C257,MWCRBRYMIOQZAQ-UHFFFAOYSA-N,CC(N(C(=O)SCC(=C(Cl)Cl)Cl)C(C)C)C,-4.8800001,4.8439,304.664
,C8174,MWIPQHBQBXDRQA-UHFFFAOYSA-N,Nc1ncc2c(n1)nc[nH]2,-1.209950395,0.5163,135.127
,C4879,MWKFXSUHUHTGQN-UHFFFAOYSA-N,CC1=NC(SC1)(C)C,-3.475849317,1.3658,129.223
,C3229,MWPLVEDNUUSJAV-UHFFFAOYSA-N,CNCCCC1(C=C(c2c1cccc2)C)c1ccccc1.Cl,-4.835882932,5.5821,313.864
,C544,MWQCHHACWWAQLJ-UHFFFAOYSA-N,CCCCCCCCCCO,-3.6300001,3.1194,158.281
,C115,MWSQXWNRFAPKRH-UHFFFAOYSA-N,c1ccc2c(c1)cc1c(c2)cccc1,-6.3499999,3.993,178.229
,C3283,MWTKBRSZHDQNSZ-UHFFFAOYSA-N,Clc1ccc2c(c1)C(=NCC(=O)N2CC1CC1)c1ccccc1,-4.754078877,3.4346,324.804
,C3060,MWUIVEJFGUFRKG-UHFFFAOYSA-N,CCCC[NH+]1CCCC(C1)OC(=O)Nc1c(C)cccc1C.[Cl-],-5.027466831,1.3455,340.888
,C9622,MWUNLOIXJCFZGY-UHFFFAOYSA-N,CCC(C(c1ccc(c(c1)O)O)O)[NH2+]C.[Cl-],0.594599656,-2.893,247.719