Name,Compound ID,InChIKey,SMILES,logS,logP,MW
,C5289,QUMOGDHLKCDWQZ-UHFFFAOYSA-N,CCCOc1c(OC)cccc1C(=O)OCC[NH+](CC)CC.[Cl-],-3.173417388,-1.4305,345.862
,C3341,QUPKCFBHJFNUEW-UHFFFAOYSA-N,CCOC(=O)C(c1ccccc1)(c1ccccc1)CC(N(C)C)C.Cl,-4.688782375,4.678,361.906
,C5789,QUQBHBRVKLEOEI-WVIDUPSYSA-N,CCC(C(=O)NC(C(Cl)(Cl)Cl)O)C(C)C,-2.857492688,2.8643,276.588
,C8522,QURCVMIEKCOAJU-HWKANZROSA-N,CCC1=NCCN1,-0.877942536,0.1625,98.1463
,C480,QUXIBURREFVNIB-UHFFFAOYSA-N,OCC(=O)[C@H]1CC[C@H]2[C@@]31C[C@H](O[C@@H]3O)[C@H]1[C@H]2CCC2=CC(=O)CC[C@]12C,-3.8499999,2.0031,360.444
,C7930,QVAJECHSUTYOLF-UHFFFAOYSA-N,COc1ccc(cc1O)/C=C/C(=O)O,-1.431489025,1.4986,194.184
,C5472,QVCMHGGNRFRMAD-XFGHUUIASA-N,Clc1ccc(nc1)OCCCCCN1CSCC1.Cl.Cl,-3.054922237,4.8323,359.743
,C6555,QVDSEJDULKLHCG-UHFFFAOYSA-N,O=C1C2C3CCC(C2C(=O)N1Cc1ccc(cc1)Cl)O3,-2.368072553,1.9403,291.73
,C9147,QVFHQENRNSAHEK-UHFFFAOYSA-M,O=C1O[C@@H]2CCN3[C@@H]2C(=CC3)COC(=O)[C@]([C@]([C@H]1C)(C)O)(C)O,0.059459768,-0.4547,325.357
,C6893,QVGLHVDBDYLFON-UHFFFAOYSA-M,CN(CCc1c[nH]c2c1c(ccc2)OP(=O)(O)O)C,-2.155943033,1.7435,284.248
,C9647,QVHKJIKPKSDFFH-UHFFFAOYSA-N,O=C(c1ccccc1)OCC[N+](C)(C)C.[Cl-],0.61308923,-1.4464,243.73
,C8595,QVHWOZCZUNPZPW-UHFFFAOYSA-N,Cn1c(=O)c2[n-]cnc2n(c1=O)C.[Na+],-0.797815726,-1.3256,206.178
,C6262,QVLAWKAXOMEXPM-UHFFFAOYSA-N,CCSCCCCCCN1CSCC1.Cl,-2.559613874,4.0461,269.898
,C7326,QVOFCQBZXGLNAA-UHFFFAOYSA-M,FC1=C(F)C(C1(F)F)(F)F,-1.867776096,2.4212,162.033
,C1006,QVPASGIYEYGKJR-LAGKVDDESA-N,ClCC(Cl)(Cl)Cl,-2.1800001,2.5954,167.849
,C8498,QVPSGVSNYPRFAS-UHFFFAOYSA-N,CCCC[N+](CCCC)(CCCC)C.[OH-],-0.9010909,3.6565,217.391
,C2476,QVUOXPGGDOOBLA-UHFFFAOYSA-L,O[C@H]([C@H](C(=O)O)O)C(=O)O.CCC(c1ccccc1)CN1CC[C@@]23[C@H]([C@H]1Cc1c3cc(cc1)O)CCCC2,-5.869431735,3.4597,525.633
,C7569,QVYRGXJJSLMXQH-UHFFFAOYSA-N,CC(NC(C(c1ccc(cc1)O)O)C)COc1ccccc1.Cl,-1.693660096,4.0641,337.841
,C9369,QWAGALBSTFENEE-UHFFFAOYSA-N,CC[N+](CCSSCC[N+](CC)(CC)CC)(CC)CC.[Br-].[Br-],0.316572895,-1.8712,482.424
,C5012,QWBBPBRQALCEIZ-UHFFFAOYSA-N,CN(CCOC(c1ccccc1C)c1ccccc1)C,-3.376915641,3.6626,269.381
,C3523,QWCJHSGMANYXCW-UHFFFAOYSA-N,Nc1cccc2c1nc1ccccc1c2,-4.512066743,3.5514,194.232
,C1259,QWCKQJZIFLGMSD-VKHMYHEASA-N,Cc1c(C)cccc1O,-1.4299999,2.009,122.164
,C965,QWCMRXJDYXVLTM-UHFFFAOYSA-N,Nc1ccc(cc1)S(=O)(=O)Nc1ccnn1c1ccccc1,-2.3199999,3.9903,314.362
,C1586,QWCRAEMEVRGPNT-UHFFFAOYSA-N,CC[C@@H](C(=O)O)N,0.31,0.5086,103.12
,C4427,QWDBCIAVABMJPP-UHFFFAOYSA-N,CCCCOc1ccc(cc1Cl)CC(=O)NO,-3.781728396,2.9577,257.713
,C3792,QWGDMFLQWFTERH-UHFFFAOYSA-N,O=C1CC2(CCCC2)CC(=O)N1CCCCN1CCN(CC1)c1ncccn1,-4.25664001,2.029,385.503
,C5754,QWJRGNMSAAHHJP-UHFFFAOYSA-N,CC(OC(=O)c1ccccc1C(=O)OC(C)C)C,-2.877312373,2.817,250.29
,C4029,QWLHJVDRPZNVBS-UHFFFAOYSA-N,Clc1ccc2c(c1)C(=Nc1c(O2)cccc1)N1CCNCC1,-4.088561893,3.1315,313.781
,C6657,QWTDNUCVQCZILF-UHFFFAOYSA-N,CC(Cc1ccccc1)OC(=O)N,-2.307423322,2.4132,179.216
,C4308,QWUWMCYKGHVNAV-UHFFFAOYSA-N,O=Cc1ccc(cc1)Oc1ccccc1,-3.86418035,3.2914,198.217
,C669,QWVGKYWNOKOFNN-UHFFFAOYSA-N,CCC(C)C,-3.1800001,2.0524,72.1488
,C304,QXAITBQSYVNQDR-ZIOPAAQOSA-N,c1ccc(cc1)CCc1ccccc1,-4.6199999,3.4718,182.261
,C1467,QXGCRDZPPUDHNX-UHFFFAOYSA-N,Cc1ccccc1O,-0.62,1.7006,108.138
,C181,QXJKBPAVAHBARF-BETUJISGSA-N,CN(/C=N/c1ccc(cc1C)C)/C=N/c1ccc(cc1C)C,-5.4699998,4.8718,293.406
,C4791,QXKHYNVANLEOEG-UHFFFAOYSA-N,O=C(c1ccc(cc1)[N+](=O)[O-])Nc1cccc(n1)C,-3.548222299,3.1467,257.245
,C268,QXKPLNCZSFACPU-UHFFFAOYSA-N,O=C1N(c2cc(Cl)cc(c2)Cl)C(=O)[C@@]2([C@@]1(C)C2)C,-4.8000002,3.3479,284.138
,C535,QXLPXWSKPNOQLE-UHFFFAOYSA-N,COc1c2oc(=O)ccc2cc2c1occ2,-3.6600001,2.5478,216.19
,C1092,QXMJKFZFEVGIQU-UHFFFAOYSA-N,Cc1ccc2c(c1)nc(cc2)C,-1.9400001,2.8516,157.212
,C9118,QXOWEHJVUGQSBP-UHFFFAOYSA-N,CC(C#C)(CC)O,0.003767029,0.7806,98.143
,C2293,QXTVYOXRHUFOMG-UHFFFAOYSA-N,CN(c1ccc(cc1)CNCC1CCC(CC1)CNCc1ccc(cc1)N(C)C)C.Cl.Cl.Cl.Cl,-6.231991559,8.4942,554.466
,C3761,QXVKRBMGFAUGJO-UHFFFAOYSA-N,Fc1ccc(cc1)C(=O)CCN1CCN2C(C1)CCc1c2cccc1.Cl.Cl,-4.279749315,5.1424,411.34
,C4503,QXWSVGWYFCBSGK-UNVLYCKESA-N,OC(CN1CCN(CC1)c1ccc(c(c1)C)C)COc1ccc(cc1)C(=O)C,-3.727116825,3.0708,382.496
,C7823,QXWYKJLNLSIPIN-JGVFFNPUSA-N,OCCN(Cc1csc(n1)c1ccc(s1)[N+](=O)[O-])C.Cl,-1.513270639,3.5291,335.83
,C7801,QXYYYPFGTSJXNS-UHFFFAOYSA-N,O=[NH+]/C=c/1\n(COCCCCc2ccccc2)ccn1C.[Cl-],-1.527265407,-2.3063,323.818
,C9197,QYAPHLRPFNSDNH-LYNLVHCPSA-N,OC(=O)[C@H]([C@@H](c1ccc(c(c1)O)O)O)N,0.130627695,0.2434,213.187
,C6653,QYCSNMDOZNUZIT-UHFFFAOYSA-N,ClCCn1nnc2n(c1=O)cnc2C(=O)N,-2.310847279,-0.676,242.622
,C8611,QYIXCDOBOSTCEI-FBVYSKEZSA-N,CN([C@@H]1C(=O)C(=C([C@@]2([C@H]1CC1C(=C(O)c3c([C@@]1(C)O)c(Cl)ccc3O)C2=O)O)O)C(=O)N)C.Cl,-0.783186188,1.7847,515.341
,C5544,QYIYFLOTGYLRGG-GPCCPHFNSA-N,NN=C(c1ccccc1)c1ccccc1,-3.015436352,3.098,196.248
,C1760,QYKIQEUNHZKYBP-UHFFFAOYSA-N,CC(CCC[C@H]([C@H]1CC[C@@H]2[C@]1(C)CC[C@H]1[C@H]2CC[C@@H]2[C@]1(C)CC[C@H](C2)O)C)C,-10.05051608,7.4686,388.669
,C7751,QYMZJNOJZPUILD-UHFFFAOYSA-N,N[C@H](c1ccccc1)C(=O)N[C@@H]1C(=O)N2[C@@H]1SCC(=C2C(=O)O)Cl,-1.565616436,1.6504,367.807
,C8419,QYNMGTGFHCYFIE-UHFFFAOYSA-N,C=COC=C,-0.959735935,1.29,70.0898
,C3634,QYNMSPKSYXPZHG-UHFFFAOYSA-M,OC(=O)C(c1ccc2c(c1)nc(o2)c1ccccc1Cl)C,-4.404065788,4.3363,301.724
,C3405,QYNYVJFXPJUEMW-UHFFFAOYSA-N,CCC(c1ccccc1)C(=O)OCCN1CCOC(C1C)c1ccccc1.Cl,-4.629058164,4.9253,403.942
,C9207,QYOYUQUNULCUIG-UHFFFAOYSA-N,CCOC(=O)c1ccc(cc1)[O-].[Na+],0.150358948,2.0071,188.156
,C7186,QYQDKDWGWDOFFU-IUODEOHRSA-N,O=C1CCC2(O1)CCCCC2,-1.970625777,2.0263,154.206
,C5208,QYQUSDHCFRWLMV-UHFFFAOYSA-N,COc1ccccc1C(=CCN(C)C)c1ccccc1.Cl,-3.234657373,4.4905,303.826
,C5323,QYRYFNHXARDNFZ-UHFFFAOYSA-N,CN(CCn1nnnc1SCC1=C(C(=O)O)N2[C@H](SC1)[C@@H](C2=O)NC(=O)Cc1csc(n1)N)C,-3.148847434,0.2568,525.628
,C3683,QYSPLQLAKJAUJT-UHFFFAOYSA-N,CCCCOc1nc(OCCCC)cc(c1)C(=O)N1CCOCC1,-4.362544454,2.8497,336.426
,C9281,QYSUVIBYLINMGG-UHFFFAOYSA-N,COc1ccc(cc1)C(C1(O)CCCCC1)CN(C)C.Cl,0.260651756,3.8376,313.863
,C414,QYYJLBGFIYZBTC-UHFFFAOYSA-N,O=C(C1=C(O)c2ccccc2S(=O)(=O)N1C)Nc1ccccn1,-4.1599998,2.6727,331.346
,C6056,QYZLKGVUSQXAMU-UHFFFAOYSA-N,OCC(COc1ccc(c(c1)C)Cl)(O)C,-2.680879927,1.7705,230.688
,C3748,QZAYGJVTTNCVMB-UHFFFAOYSA-N,CN(CCOc1c(ccc(c1C(=O)OC(C)C)C)C(C)C)C,-4.291852229,3.624,307.428
,C1036,QZFKJZKPGLLKMJ-UHFFFAOYSA-N,C=CCC=C,-2.0899999,1.7485,68.117
,C8442,QZIQJIKUVJMTDG-JSTPYPERSA-L,NCCc1c[nH]c2c1cc(O)cc2,-0.945022712,2.075,176.215
,C6982,QZIQJVCYUQZDIR-UHFFFAOYSA-N,CC1CC[NH+](C1c1c[nH]c2c1cccc2)C.[Cl-],-2.100422504,0.3367,250.767
,C9773,QZKDRLZSJSWQPS-RMPHRYRLSA-N,C[C@@H]1O[C@@H]1P(=O)([O-])[O-].[Na+].[Na+],0.722599506,0.7853,182.023
,C9523,QZKKOQQIVLXUEI-UHFFFAOYSA-N,ClCCN(CCCl)C.Cl,0.452743861,2.1978,192.514
,C7806,QZNPXKRALPFXPR-UHFFFAOYSA-N,CC(=O)O[C@H]1[C@H](O[C@H]2[C@@H]1OC(O2)(C)C)[C@H]1COC(O1)(C)C,-1.522863901,0.946,302.32
,C8932,QZTMHCLQBRFNOF-UHFFFAOYSA-N,OCc1cnc(c(c1C)O)C.Cl,-0.33000406,1.6983,189.639
,C5598,QZUCYFDJFTZLNK-UHFFFAOYSA-N,O=C(c1cccnc1)Nc1ccccn1,-2.977098381,1.8019,199.209
,C8279,QZUDBNBUXVUHMW-UHFFFAOYSA-N,NNC(=O)c1cc(Cl)nc(c1)Cl,-1.109802048,2.0831,206.029
,C2103,QZXCCPZJCKEPSA-UHFFFAOYSA-N,OC(=O)COc1c(I)cc(cc1I)I,-6.790655823,2.9638,529.837
,C1696,QZYHIOPPLUPUJF-UHFFFAOYSA-N,Nc1ccc(cc1)S(=O)(=O)Nc1noc(c1)C	,-2.70 ,3.101,253.278
,C698,QZYNWJQFTJXIRN-UHFFFAOYSA-N,OC(=O)Cc1c(Cl)ccc(c1Cl)Cl,-3.0799999,3.2739,239.483
,C907,QZYPYEXCDOTIDN-UHFFFAOYSA-N,Cc1cccc(c1)[N+](=O)[O-],-2.4400001,2.4264,137.136
,C299,RABVIFXMFZFITE-KHPPLWFESA-N,Clc1cc(Cl)c(c(c1)Cl)Cl,-4.6300001,4.3002,215.892
,C7192,RADKZDMFGJYCBB-UHFFFAOYSA-N,CN1CCN2C(C1)CCc1c2cccc1.Cl,-1.968026628,2.5581,238.756
,C7365,RADLXCPDUXFGFF-UHFFFAOYSA-N,O/N=C/1\C2CC3CC1CC(C2)C3,-1.836087604,2.2727,165.232
,C9536,RAFCIQDIWCBIKJ-UHFFFAOYSA-N,O=Cc1c(CO)cnc(c1O)C,0.47582725,0.4004,167.162
,C3596,RAFOHKSPUDGZPR-VOTSOKGWSA-N,CN(CCC=C1c2ccccc2C(c2c1cccc2)(C)C)C.Cl,-4.447550257,5.5113,327.891
,C5443,RAIPHJJURHTUIC-UHFFFAOYSA-N,ClCCN(C1CCCCC1)CCCl,-3.071821973,3.0987,224.171
,C6400,RAOCRURYZCVHMG-UHFFFAOYSA-N,CC/C=C(/C1(CC)C(=O)NC(=O)NC1=O)\C,-2.475690535,1.7627,224.256
,C1516,RAOISAYCLQDOND-UHFFFAOYSA-N,Nc1nccs1,-0.36000001,1.3065,100.142
,C3545,RAPDCDUGVAFEGB-ONEGZZNKSA-N,CCCOc1ccc2c(c1)[nH]c(n2)NC(=O)OC,-4.48695356,2.603,249.266
,C7655,RAPZEAPATHNIPO-UHFFFAOYSA-N,CCn1cc(C(=O)O)c(=O)c2c1c(F)c(N1CCN(CC1)C)c(c2)F,-1.623071334,1.7525,351.348
,C3584,RAQMXXMLEHZQQE-UHFFFAOYSA-N,CCC(=O)N1C2CCC1CN(C2)C/C=C/c1ccc(cc1)Cl,-4.458256632,3.3142,318.841
,C2855,RARQHAFNGNPQCZ-UHFFFAOYSA-N,Fc1ccc2c(c1)onc2C1CCN(CC1)CCc1c(C)nc2n(c1=O)CCCC2,-5.279254326,3.5283,410.484
,C7796,RASQWFNMYUIFFE-UHFFFAOYSA-N,O=C1c2ccccc2CS(=O)(=O)N1C,-1.530975494,1.6207,211.238
,C5960,RAZOKRUZEQERLH-UHFFFAOYSA-N,Clc1ccc(cc1)OC(C(=O)OCc1cccnc1)(C)C,-2.743674845,3.6358,305.756
,C6926,RBBBYDOGRKOESS-UHFFFAOYSA-N,FCCN(C(=O)NC1CCSCC1)N=O,-2.138075695,1.9354,235.279
,C5916,RBBWCVQDXDFISW-UHFFFAOYSA-N,CC#CC#CC(=O)c1ccccc1,-2.769447074,1.896,168.191
,C6222,RBBYLCGCSMGUJB-UHFFFAOYSA-N,CCC(=O)OC1(CCN(C1C)C)c1ccccc1.Cl,-2.579104657,3.299,283.794
,C2903,RBDRSDNCAYGHIW-UHFFFAOYSA-N,CC(=CCC1C(=O)N(N(C1=O)c1ccccc1)c1ccccc1)C,-5.224193776,4.0839,320.385
,C4742,RBEUQTCXHILJSS-UHFFFAOYSA-N,CCC(C(c1ccccc1)(c1ccccc1)CC[NH+]1CCOCC1)O.[Cl-],-3.579041428,0.622,375.932
,C2366,RBFWNACSJQWRQV-XTWSRORZSA-N,ClCCN(c1cc(ccc1C)C(=O)OC(C)C)CCCl,-6.087778702,3.8442,318.239
,C3338,RBGDLYUEXLWQBZ-UHFFFAOYSA-N,CCCN1CCCC(C1)OC(=O)Nc1c(C)cccc1Cl,-4.689054621,4.0822,310.819
,C4538,RBGOLZYAUJDSGL-UHFFFAOYSA-N,OC(=O)C(=O)[O-].CCCOc1c(OC)cccc1C(=O)NCCO/[NH+]=C(/CC)\C,-3.69995989,-0.6913,412.434
,C8513,RBGWCEWDAHDPEH-UHFFFAOYSA-N,NC(=O)c1ccccc1Cl,-0.883178757,2.1392,155.582
,C3053,RBGWIGCQQIJVGI-UHFFFAOYSA-N,N#CC(c1ccc2c(c1)nc(o2)c1ccc(cc1)Cl)C,-5.039747564,4.77528,282.724
,C4051,RBMARMBAZFJJRX-UHFFFAOYSA-N,CCN1CCCC(C1)OC(=O)C(c1ccccc1)c1ccccc1.Cl,-4.071874779,4.5859,359.89
,C3067,RBNJBKJYVAQZTJ-UHFFFAOYSA-N,O=C(C1CC1(c1ccccc1)c1ccccc1)OCCN1CCCCC1,-5.023586877,3.9596,349.466
,C4915,RBOSJXRXKKJKDN-UHFFFAOYSA-N,C=CCc1cccc(c1OCC(CO)O)Cl,-3.44504985,1.8005,242.699
,C5407,RBOUBJPHXSVUTH-UHFFFAOYSA-N,CCOc1ccc(cc1)CC(=O)N1CC2CCC(C1)N2C,-3.098253852,1.8086,288.385
,C2986,RBOXVHNMENFORY-DNJOTXNNSA-N,CCCCCc1ccccc1OCC[NH+](CCCl)CC.[Cl-],-5.127969519,-0.0543,334.324
,C5004,RBOXVHNMENFORY-KEMUOJQUSA-N,O=c1ccc2c(c1)[nH]c1c2cc[nH]c1C.Cl,-3.383709897,3.1198,234.682
,C7614,RBQOQRRFDPXAGN-UHFFFAOYSA-N,COc1ccc2c3c1O[C@@H]1[C@@]43CCN([C@H](C2)[C@@H]4CC[C@@H]1O)C,-1.652271112,1.663,301.38
,C6440,RBUDTHMFOGHSOD-VAWYXSNFSA-N,COc1ccc2c3c1O[C@@H]1[C@@]43CCN([C@H](C2)[C@@H]4CC[C@H]1O)C,-2.452589796,1.663,301.38
,C8400,RBULJSNVVSSVKH-UHFFFAOYSA-N,CCCn1cnc2c1c(=O)n(CCCCC(=O)C)c(=O)n2C,-0.981090588,1.066,306.36
,C5898,RBZDDVSRHMGAOB-KRWCAOSLSA-N,CN(/N=N/c1ccc(cc1)C#N)C,-2.778218566,2.11858,174.203
,C2921,RBZIGQJSMCOHSS-UHFFFAOYSA-N,OC(=O)Cc1ccc2c(c1)nc(s2)c1ccc(cc1)C(C)C,-5.196652009,4.7138,311.398
,C7817,RCAKSFBHTACZEL-GDNBJRDFSA-N,COc1ccc(cc1)C(=O)/C=N/[NH+]1CCN(CC1)C.[Cl-],-1.517251307,-1.7949,297.78
,C6752,RCBMTBRYPANMIT-VPIDWONZSA-N,OC(=O)C(CC(=O)O)(CC(=O)O)O.CCN(CCc1onc(n1)c1ccccc1)CC,-2.246475757,1.3724,437.444
,C6990,RCFKEIREOSXLET-UHFFFAOYSA-N,O/N=C\1/CCCc2c(C1)c(OC)c(c(c2)OC)OC,-2.093338193,2.4214,265.305
,C3541,RCFRTWDBBMGLGK-UHFFFAOYSA-N,O=C[C@@]12CC[C@@H](C[C@@]2(O)CC[C@@H]2[C@@H]1CC[C@]1([C@]2(O)CC[C@@H]1C1=CC(=O)OC1)C)OC(=O)C(C)C.[H][H],-4.49064242,3.1051,476.602
,C3939,RCIMBBZXSXFZBV-UHFFFAOYSA-N,Cc1cc(Cl)c(cc1S(=O)(=O)N)S(=O)(=O)N,-4.147577954,3.5054,284.74
,C1324,RCISIXJGNBXXPZ-UHFFFAOYSA-N,CCC1(C)C(=O)NC(=O)NC1=O,-1.23,0.4263,170.166
,C4603,RCIYVNBEFCDGSS-UHFFFAOYSA-N,CCn1cc(C(=O)O)c(=O)c2c1nc(nc2)N1CCCC1,-3.664114181,1.1748,288.302
,C4342,RCNOGGGBSSVMAS-UHFFFAOYSA-N,COc1ccc2c(c1CN(C)C)oc(c(c2=O)C)c1ccccc1.Cl,-3.849403737,4.6406,359.847
,C3547,RCODDZKULPFOGG-UHFFFAOYSA-N,CN(CCCN1Cc2ccccc2Cc2c1cccc2)C.Cl,-4.483851883,4.4161,316.868
,C8484,RCQXSQPPHJPGOF-UHFFFAOYSA-N,OC(=O)Cc1cscc1,-0.909776024,1.3752,142.176
,C7915,RCUAUWPBLXTBGM-UHFFFAOYSA-N,O=C1C(CCN1c1ccccc1)N1CCOCC1.Cl,-1.442830104,1.929,282.766
,C6867,RCUDFXMNPQNBDU-VOTSOKGWSA-N,OC(=O)C(CC(=O)O)(CC(=O)O)O.Cn1cnc2c1c(=O)n(C)c(=O)n2C,-2.16698806,-2.2778,386.314
,C1745,RCVMLADERZSPNA-UHFFFAOYSA-N,CC(=CCN(CCC(c1cccc2c1cccc2)(C(=O)N)CCN(CC=C(C)C)CC=C(C)C)CC=C(C)C)C,-11.027901,8.5122,543.826
,C6007,RCYTWTBFGNSMQC-VHEBQXMUSA-N,COc1cc(/C=C/C(=O)N2CCN(CC2)CC(=O)N2CCCC2)cc(c1OC)OC,-2.710625608,1.3059,417.499
,C5066,RDBVETSHLDWOJK-UHFFFAOYSA-N,COc1ccc(cc1)CCCCN1CCSC1C.Cl,-3.336809456,4.1526,301.875
,C2535,RDGYMXDULMDNJN-UHFFFAOYSA-N,CC1=NN(C(=O)C1/N=N/c1ccc(cc1)C(=O)O)c1ccccc1,-5.767141059,2.7604,322.318
,C2035,RDHHZPRHIKNBBI-OLQVQODUSA-N,BrCCN(c1ccc(cc1)OC(=O)c1cccc(c1)[N+](=O)[O-])CCBr,-7.052888075,4.9334,472.128
,C3628,RDHPKYGYEGBMSE-UHFFFAOYSA-N,N/C(=[NH+]/CC1CCCCCC1)/CSSC/C(=[NH+]/CC1CCCCCC1)/N.[Cl-].[Cl-],-4.406391026,-3.4072,471.594
,C739,RDIDOICNEQWODO-UHFFFAOYSA-N,O=C1NC(=O)[C@@H]2[C@H]1C=CC=C2,-2.9300001,0.33,149.147
,C1357,RDJGWRFTDZZXSM-RNWLQCGYSA-N,CCBr,-1.09,1.4012,108.965
,C7921,RDLPVSKMFDYCOR-UEKVPHQBSA-N,CCCCn1c(=O)[nH]c(=O)c2c1nc[nH]2,-1.437196923,0.213,208.217
,C5604,RDMOROXKXONCAL-UEKVPHQBSA-N,CN1CC[C@@]23[C@@H]4[C@H]1Cc1c3c(O[C@H]2[C@H](C=C4)O)c(cc1)OCc1ccccc1,-2.972512926,3.0094,375.46
,C8168,RDNLAULGBSQZMP-UHFFFAOYSA-N,O=C([C@@H](C1=CCC=CC1)N)N[C@@H]1C(=O)N2[C@@H]1SCC(=C2C(=O)O)C,-1.214949512,1.3777,349.405
,C8548,RDOIQAHITMMDAJ-UHFFFAOYSA-N,COC1=C(C(=O)O)N2[C@H](SC1)[C@@H](C2=O)NC(=O)[C@@H](C1=CCC=CC1)N,-0.848443526,0.9617,365.404
,C3946,RDOUPJBDKWSTIZ-AYXDOIBJSA-N,OC(C1CC2CC1C=C2)(c1ccccc1)CCN1CCCCC1.Cl,-4.141814411,4.7023,347.922
,C2029,RDOWQLZANAYVLL-UHFFFAOYSA-N,Clc1ccc(cc1)C1(O)CCN(CC1)CCC(C(=O)N(C)C)(c1ccccc1)c1ccccc1,-7.070889921,5.0259,477.038
,C4665,RDOXTESZEPMUJZ-UHFFFAOYSA-N,O[C@H]([C@H](C(=O)O)O)C(=O)O.CCOC(=O)CCN1CC[C@@]23[C@H]([C@H]1Cc1c3cc(cc1)O)CCCC2,-3.628875816,1.2191,493.547
,C781,RDQOCZCEKVRDDZ-UHFFFAOYSA-N,c1ccc2c(c1)cnc1c2cccc1,-2.78,3.388,179.217
,C1130,RDTKUZXIHMTSJO-UEIGIMKUSA-M,COc1ccccc1,-1.85,1.6952,108.138
,C5599,RDUHXGIIUDVSHR-UHFFFAOYSA-N,CCOc1ccc(cc1)C(=O)CCN1CCCCC1.Cl,-2.977028586,3.8839,297.82
,C3180,RDUORFDQRFHYBF-UHFFFAOYSA-N,CC[N+](CCOc1ccc(cc1)/C=C/c1ccccc1)(CC)CC.[I-],-4.885915757,2.1163,451.384
,C8956,RDXLYGJSWZYTFJ-UHFFFAOYSA-N,CCCCNCC(c1ccc(cc1)O)O,-0.284117508,2.2062,209.285
,C7081,RDYPBOROVFITQX-UHFFFAOYSA-N,COc1ccc2c(c1)c1CCNC(c1[nH]2)C,-2.04811904,2.712,216.279
,C652,RECUKUPTGUEGMW-UHFFFAOYSA-N,O=C1NCCN1c1ncc(s1)[N+](=O)[O-],-3.22,1.4979,214.202
,C7854,REDUKVGSRPLFRP-UHFFFAOYSA-L,OCC(C(C(C(=O)NNCc1ccccc1)O)O)O,-1.488822351,-1.3358,270.282
,C1045,REDXCMZCCZLQCV-UHFFFAOYSA-N,CC(c1ccc(c(c1)O)C)C,-2.0799999,2.824,150.218
,C9301,REEUQZUMFVRILK-UHFFFAOYSA-N,CC[N+](CCc1ccc(cc1)[N+](CC)(CC)C)(CC)C.[I-].[I-],0.273849221,-2.2996,532.285
,C9801,REEUVFCVXKWOFE-UHFFFAOYSA-K,NN1C2CCC1C(=O)N(C2=O)C,0.743380276,-0.7322,169.181
,C5200,REFALBMIVDQKHY-UHFFFAOYSA-N,Cc1n(C2CCCC2)c(=O)n(c(=O)c1Br)C,-3.238011335,1.733,287.153
,C9139,REIUXOLGHVXAEO-UHFFFAOYSA-N,CC[N+](CCOc1c(OCC[N+](CC)(CC)CC)cccc1OCC[N+](CC)(CC)CC)(CC)CC.[I-].[I-].[I-],0.04985867,-3.5355,891.529
,C7224,REJBTXQSIQFRRE-XZBQRBHSSA-N,O=C1C(=CC(=O)c2c1cccn2)NCCCN1CCCCC1,-1.94218796,2.1389,299.368
,C116,RELMFMZEBKVZJC-UHFFFAOYSA-N,CCCCCCCCCCCCCCCO,-6.3499999,5.0699,228.414
,C5111,RENLSHPSGMACFW-UHFFFAOYSA-N,O=C1CC[C@]2([C@@H](C1)CC[C@@H]1[C@@H]2CC[C@]2([C@]1(O)CC[C@@H]2C1=CC(=O)OC1)C)C,-3.303960378,3.8125,372.498
,C451,RENMDAKOXSCIGH-UHFFFAOYSA-N,Clc1c(Cl)cccc1Cl,-4,3.6468,181.447
,C4954,REOJLIXKJWXUGB-UHFFFAOYSA-N,OC(C(COC(=O)N)(Cl)Cl)c1ccc(cc1)Cl,-3.418103511,3.3429,298.55
,C1552,REOYSBSMCVRRSM-UHFFFAOYSA-L,ClCC#N,-0.090000004,0.74878,75.497
,C6230,REQCZEXYDRLIBE-UHFFFAOYSA-N,CCCCC1C(=O)NN(C1=O)c1ccccc1,-2.573765855,2.2646,232.278
,C7918,REQFWARMBJWJAQ-UHFFFAOYSA-N,CCCCCCC[N+](CCOCC[N+](CCCCCCC)(CC)CC)(C)C.[Br-].[Br-],-1.440938509,-0.1152,546.506
,C7594,REQVMPVOKUHDOZ-UHFFFAOYSA-N,CCN(CCNC(=O)c1ccc(cc1)N)CC,-1.668731876,2.3125,235.325
,C7551,REQXYFLFNBBIRX-UHFFFAOYSA-N,CNC(=O)c1ccc(c(c1)S(=O)(=O)NC)Cl,-1.706823613,2.4703,262.713
,C7691,RETIMRUQNCDCQB-UHFFFAOYSA-N,OCC(CC(C)C)(CO)C,-1.602743616,1.0234,146.227
,C7923,REVYDCJKWVXJGT-UHFFFAOYSA-N,NC(=O)C(c1ccccc1)(c1ccccc1)O,-1.436927712,2.1081,227.259
,C7444,REXBYBGSZJEITR-UHFFFAOYSA-N,CN1CCCCC1C(=O)Nc1c(C)cccc1C.Cl,-1.781251995,3.5391,282.809
,C4937,REXWOFSLUVLBDP-QNGOZBTKSA-N,OS(=O)(=O)NC1CCCCC1.CC(C(c1ccccc1)(C#N)CC(N(C)C)C)C,-3.431072703,5.62738,423.612
,C3168,REYFJDPCWQRWAA-UHFFFAOYSA-N,CC1CCCCN1CCCCCCOC(=O)c1ccccc1,-4.904589632,4.2161,303.439
,C2568,REYUZOLYIOQRIG-UHFFFAOYSA-N,CCC(=O)N1C2CCC1CN(C2)C/C(=C/c1ccccc1)/c1ccccc1,-5.716173251,4.1882,360.492
,C851,RFAPTJJTVLWLJY-UHFFFAOYSA-N,c1ccc(cc1)CN(c1ccccc1)CC1=NCCN1,-2.5999999,2.4593,265.353
,C2549,RFCPBHVDIXXSGT-UHFFFAOYSA-N,CCCCCCCCCCOc1c(OC)cc(cc1OC)C(=O)N,-5.736671984,5.0225,337.454
,C9809,RFDAIACWWDREDC-NMLLGMEWSA-N,CCOC(=O)CN(C(=O)N)N=O,0.756604736,0.3119,175.143
,C2692,RFEJUZJILGIRHQ-UHFFFAOYSA-N,OCCN1CC2CCC(C1)N2CCCN1c2ccccc2Sc2c1cccc2,-5.510858027,3.7611,395.561
,C224,RFFLAFLAYFXFSW-UHFFFAOYSA-N,O[C@H]1CC[C@]2([C@H](C1)C[C@@H]([C@@H]1[C@@H]2C[C@@H](O)[C@]2([C@H]1CC[C@@H]2[C@H](CCC(=O)NCC(=O)O)C)C)O)C,-5.1500001,2.9558,465.623
,C9392,RFGXJQLQGRJKMD-UHFFFAOYSA-N,OC(C(C(=O)O)O)C(=O)O.OC(C(C(=O)O)O)C(=O)O.CN1CCCC1c1cccnc1,0.33497467,-2.459,462.405
,C706,RFHAOTPXVQNOHP-UHFFFAOYSA-N,Clc1ccccc1Cl,-3.05,2.9934,147.002
,C3708,RFIBDMCPIREZKC-UHFFFAOYSA-N,[O-][N+](=O)c1ccc2c(c1)nc1c(c2N)cccc1,-4.341396386,3.9828,239.229
,C1142,RFIXURDMUINBMD-UHFFFAOYSA-N,Fc1ccc(c(c1)F)C(Cn1cncn1)(Cn1cncn1)O,-1.8,0.7358,306.271
,C2925,RFJFGGRHLGXZNV-UHFFFAOYSA-N,Ic1cc(I)c(c(c1)C(=O)O)N,-5.191932552,2.7574,388.929
,C2237,RFMGRVLGGJUQTO-UHFFFAOYSA-N,CC(NC(C(c1cc(I)c(c(c1)I)O)O)C)CCc1ccccc1,-6.378267106,5.0251,551.2
,C9685,RFPVXZWXDPIKSD-UHFFFAOYSA-N,NC(=O)OCC[N+](C)(C)C.[Br-],0.643779022,-2.5078,227.099
,C7389,RFRXIWQYSOIBDI-UHFFFAOYSA-N,CNCC(c1cc(OC)ccc1OC)C.Cl,-1.824640388,3.2196,245.746
,C3656,RFSUNEUAIZKAJO-KAZBKCHUSA-N,CS(=O)(=O)O.CCN(C(CC(C)C)COC(=O)c1ccc(cc1)N)CC,-4.385296762,4.3481,388.522
,C3898,RFXGIRLHEACEHX-UHFFFAOYSA-N,CCc1oc2c(c1C(=O)c1ccc(cc1)O)cccc2,-4.176655891,3.9318,266.291
,C1621,RFZHJHSNHYIRNE-ZETCQYMHSA-N,OC[C@H]1O[C@@]([C@@H]([C@@H]1O)O)(O)CO,0.63999999,-3.2198,180.156
,C7603,RGCKGOZRHPZPFP-UHFFFAOYSA-N,OCC(COc1cccc2c1nccc2)O,-1.661491917,0.9668,219.237
,C1413,RGCVKNLCSQQDEP-UHFFFAOYSA-N,CC[C@@](C(C)C)(O)C,-0.85000002,1.8034,116.201
,C782,RGEVWUKXWFOAID-UHFFFAOYSA-N,O=C1c2ccccc2C(=O)c2c1ccc(c2O)O,-2.78,1.8732,240.211
,C410,RGFVICVNWNMBQG-UHFFFAOYSA-N,OCCN1CCN(CC1)CCCN1c2ccccc2Sc2c1cc(Cl)cc2,-4.1599998,3.8835,403.969
,C7868,RGHFKWPGWBFQLN-UHFFFAOYSA-M,CCC1(CC)C(=O)CCNC1=O,-1.4797314,1.2106,169.221
,C5199,RGHHSNMVTDWUBI-UHFFFAOYSA-N,FCCCCI,-3.240917029,2.1711,202.009
,C9588,RGIKAFNNDOGWCB-UHFFFAOYSA-N,CCC1(CC)C(=O)NC(=NC1=O)[O-].[Na+],0.559661382,0.0001,206.174
,C1384,RGLAXEITJXZVAN-UHFFFAOYSA-N,O=Cc1ccc(cc1)O,-0.95999998,1.2047,122.121
,C2693,RGLLOUBXMOGLDQ-IVEVATEUSA-N,CCOC(=O)Cc1ccc2c(c1)nc(s2)c1ccc(cc1)OC,-5.510754662,4.0775,327.397
,C7651,RGLYKWWBQGJZGM-ZCXUNETKSA-N,CCC1(CC)C(=O)N(C)C(=O)N(C1=O)C,-1.626141915,0.719,212.246
,C2809,RGOVYLWUIBMPGK-UHFFFAOYSA-N,C[C@]12Cc3nonc3C[C@@H]1CC[C@@H]1[C@@H]2CC[C@]2([C@H]1CC[C@]2(C)O)C,-5.33872201,3.778,330.464
,C440,RGPDEAGGEXEMMM-UHFFFAOYSA-N,CC/C(=C(/c1ccc(cc1)O)\CC)/c1ccc(cc1)O,-4.0700002,4.8286,268.35
,C3456,RGPLEAOEZZZMJF-UHFFFAOYSA-N,CCCCCCCCC(=O)NCc1ccc(c(c1)OC)O,-4.579853185,4.1585,293.401
,C6127,RGSFGYAAUTVSQA-UHFFFAOYSA-N,CN1CCOC(c2c(C1)cccc2)c1ccccc1,-2.645178915,3.1759,253.339
,C2760,RGSYJUYJLNPLFR-UHFFFAOYSA-N,c1ccc(cc1)CNCC1CCC(CC1)COCc1ccccc1.Cl,-5.425893919,5.9923,359.933
,C829,RGUQWGXAYZNLMI-UHFFFAOYSA-N,C1CCCC1,-2.6400001,1.9505,70.1329
,C6116,RGUVUPQQFXCJFC-UHFFFAOYSA-N,CCC1(c2ccccc2)C(=O)N(CNC(=S)N)C(=O)N(C1=O)C.Br,-2.651288471,2.4708,415.305
,C8574,RGXCCTUBFMDKJO-UHFFFAOYSA-N,FC(c1cc2NC=NS(=O)(=O)c2cc1S(=O)(=O)N)(F)F,-0.818579535,2.9308,329.276
,C7290,RGXWDWUGBIJHDO-UHFFFAOYSA-N,CCCCCCCC(=O)NO,-1.895382727,2.2432,159.226
,C8490,RGYOCHMZSLUCNP-UHFFFAOYSA-N,OCCN1CCN(CC1)c1nc(NC)nc(c1SC)Cl,-0.90341258,1.0838,317.838
,C433,RGZZPXRWOUTAPT-UHFFFAOYSA-N,CCCCCCCCCC(=O)OCC,-4.0999999,3.6902,200.318
,C4322,RHAXSHUQNIEUEY-UHFFFAOYSA-N,N#CC(c1cccc(c1)C(=O)c1ccccc1)C,-3.858378486,3.54468,235.281