Name,Compound ID,InChIKey,SMILES,logS,logP,MW
,C2720,HIIJZYSUEJYLMX-UHFFFAOYSA-N,CN(CCCN1c2cc(Cl)ccc2Sc2c1ccc(c2)O)C,-5.479542888,4.665,334.864
,C4759,HIMUQVQWNLSNKM-UHFFFAOYSA-N,CCC(=O)c1ccc(cc1)OCC(CN1CCN(C(C1)C)c1ccccc1)O,-3.569798756,3.2326,382.496
,C8791,HIMXGTXNXJYFGB-UHFFFAOYSA-N,[O-][N+](=O)c1nccn1CC(CF)O,-0.52690632,0.6449,189.144
,C3153,HIRAKLKRABLDCV-UHFFFAOYSA-N,Cc1cccc2c1nc1c(C)cccc1c2N,-4.9171696,4.1682,222.285
,C1315,HIVLUCCOZZYOEF-UHFFFAOYSA-N,O=C1NC(=O)C(=O)C(=O)N1,-1.25,-1.4209,142.07
,C6468,HIVTWVVWNPYTCZ-UHFFFAOYSA-M,NC(c1ccccc1)Cc1ccccc1.Cl,-2.43423273,4.4314,233.737
,C8485,HIWMLMWKYHIRNQ-IYPAPVHQSA-M,CCC(=O)N1CC(C)N(C(C1)C)C,-0.909459416,0.8232,184.279
,C3936,HIYAVKIYRIFSCZ-CYEMHPAKSA-N,CCOC(=O)C[S+](CCC)CCC.[Br-],-4.149859043,-1.0082,285.242
,C9564,HIZFHSGLPYLSFU-UHFFFAOYSA-N,CCCCO[C@H]1C[C@@H]1[N+](C)(C)C.[I-],0.524044202,-1.3458,299.192
,C1790,HJCIGAUHTJBHBQ-UHFFFAOYSA-N,CNc1ccc2c(c1C(=O)O)nc(o2)C[C@H]1O[C@@]2(CC[C@H]1C)O[C@@H]([C@@H](C[C@H]2C)C)[C@@H](C(=O)c1ccc[nH]1)C,-9.405368174,5.6028,523.621
,C8230,HJELPCHEJDULNR-UHFFFAOYSA-N,CC(CNc1ccccc1C(=O)N)O,-1.147503052,1.3515,194.23
,C5699,HJHVQCXHVMGZNC-JCJNLNMISA-M,Clc1ccc2c(c1)nc(o2)C,-2.910386063,2.7896,167.592
,C6106,HJJPJSXJAXAIPN-UHFFFAOYSA-N,CCCCCC1(C)OCC(O1)CO,-2.656726106,1.6906,188.264
,C2413,HJLSLZFTEKNLFI-UHFFFAOYSA-N,CC(=O)O[C@H]1C[C@]2([C@H](/C/1=C(/C(=O)[O-])\CCC=C(C)C)C[C@H]([C@@H]1[C@]2(C)CC[C@@H]2[C@]1(C)CC[C@H]([C@H]2C)O)O)C.[Na+],-5.990985084,4.3314,538.691
,C1631,HJOVHMDZYOCNQW-UHFFFAOYSA-N,COC(=O)C1=CCCN(C1)C,0.81,0.3592,155.194
,C8303,HJSFDYCHYVGVDC-UHFFFAOYSA-N,CCS(=O)(=O)CCn1c(C)ncc1[N+](=O)[O-],-1.095190428,2.1384,247.272
,C1363,HJSJELVDQOXCHO-HTQZYQBOSA-N,CC1=CC(=O)CC(C1)(C)C,-1.0599999,2.3218,138.207
,C4653,HJSPWKGEPDZNLK-UHFFFAOYSA-N,CC(NC(=O)OC1CCN(CC1)CCCC(=O)c1ccc(cc1)F)C,-3.635050194,3.7164,350.428
,C9767,HJUFTIJOISQSKQ-UHFFFAOYSA-N,OCC1=CCN2[C@H]1[C@H](O)CC2,0.711609071,-0.7082,155.194
,C4972,HJUGFYREWKUQJT-UHFFFAOYSA-N,Oc1ccc(cc1)Cc1ccccc1,-3.400868153,2.983,184.234
,C290,HJWLWNLAIBFKDO-UHFFFAOYSA-N,CCOC(=O)NCCOc1ccc(cc1)Oc1ccccc1,-4.6999998,3.9947,301.337
,C677,HJXQETKWGAZTPT-UHFFFAOYSA-M,BrC(Br)(Br)Br,-3.1400001,3.1773,331.627
,C4368,HJYXCTLKGAOVHQ-UHFFFAOYSA-N,OC(=O)C(=C)CC(=O)c1ccc(cc1)c1ccccc1Cl,-3.833651264,4.2206,300.736
,C4070,HKAZHNCYFOUFFY-UHFFFAOYSA-N,CC(=O)NCCSSc1cc(Cl)ccc1c1ccc(cc1S(=O)[O-])Cl.[Na+],-4.06351342,6.0314,458.378
,C7522,HKCCFWTYDQUANZ-UHFFFAOYSA-N,OCC(COc1cccc(c1)[N+](=O)[O-])O,-1.724538739,0.85,213.187
,C3689,HKDXLLDCXWUUKY-UHFFFAOYSA-M,Clc1cccc(c1)C(c1ccc(cc1)Cl)OCC[NH+](C)C.[Cl-],-4.35575263,0.2479,360.706
,C5715,HKIZCIYTMMHSCB-UHFFFAOYSA-N,CC1CCCCN1CCOCCOC(=O)c1ccccc1,-2.904569494,2.6723,291.385
,C9812,HKLYXHWNPAGMMW-UHFFFAOYSA-N,O=c1[nH]c(=O)c2c([nH]1)nc[n-]2.[Na+],0.759213702,-1.2282,178.124
,C3810,HKMTVMBEALTRRR-UHFFFAOYSA-N,Clc1ccc2c(c1)c(C)cc(n2)OCCCCCNCCSS(=O)(=O)O,-4.240146178,5.343,418.959
,C4430,HKMYUTZXBNCDAN-UHFFFAOYSA-N,NC1c2ccccc2C=Cc2c1cccc2,-3.778729924,3.9188,207.27
,C99,HKODIGSRFALUTA-JTLQZVBZSA-N,c1ccc2c(c1)c1ccc3c(c1C2)cccc3,-6.6799998,4.411,216.277
,C6502,HKOIXWVRNLGFOR-KOFBORESSA-N,COc1ccc2c(c1C[NH+]1CCOCC1)oc(c(c2=O)C)C.[Cl-],-2.407392195,-0.5933,339.814
,C8740,HKOOXMFOFWEVGF-UHFFFAOYSA-N,C/C=C\1/C[C@@H](C)[C@@](C)(O)C(=O)OCC2=CCN3[C@H]2[C@H](OC1=O)CC3,-0.59507248,1.1307,335.395
,C8540,HKOZYKMXXBHEHT-UHFFFAOYSA-M,COc1ccc2c3c1O[C@@H]1[C@@]43CCN[C@H](C2)[C@@H]4C=C[C@@H]1O,-0.862524525,1.4877,285.338
,C1570,HKPHPIREJKHECO-UHFFFAOYSA-N,NNc1ccccc1,0.07,1.7455,108.141
,C6390,HKQBXOVZKQILFC-RACBXGGBSA-N,CC[N+](CCOC(c1ccccc1)c1ccccc1)(CC)C.[I-],-2.485735721,1.283,425.347
,C402,HKSKSPMTGBSDOR-UHFFFAOYSA-N,CCCCOCN(c1c(CC)cccc1CC)C(=O)CCl,-4.1900001,4.1574,311.847
,C3070,HKUYGGWXIWIJIX-UHFFFAOYSA-N,O[C@H]([C@H](C(=O)O)O)C(=O)O.CC/C(=C/CN1CC[C@@]23[C@H]([C@H]1Cc1c3cc(cc1)O)CCCC2)/C,-5.021127207,2.6222,475.574
,C5666,HKVNQGYCUGIYTA-UHFFFAOYSA-N,COc1ccc(cc1)CC(c1ccc(cc1)OC)N,-2.936279236,3.6466,257.328
,C5308,HKYGTNQCXCKJAW-UHFFFAOYSA-L,OC(CN1CCN(CC1)c1ccc(cc1)C)COc1cccc(c1)C(=O)C,-3.158170408,2.7624,368.469
,C9200,HLCFGWHYROZGBI-JJKGCWMISA-M,O=C1C=CC=CC1=c1ocn[nH]1,0.140917704,0.1296,162.145
,C1840,HLEVPWCWUZKNTL-UHFFFAOYSA-N,CC[N+]1(CCCCCCCCCC[N+]2(CC)CCCCC2)CCCCC1.[Br-].[Br-],-8.470966841,0.074,526.475
,C9666,HLFSDGLLUJUHTE-SNVBAGLBSA-N,OC[C@H]([C@H]([C@@H]([C@H](C(=O)[O-])O)O)O)O.[K+],0.63032967,-4.8278,234.246
,C4513,HLKXYZVTANABHZ-REOHCLBHSA-N,CCOC(=O)C1(CC[NH+](CC1)CCC(=O)c1ccccc1)c1ccccc1.[Cl-],-3.713171907,1.0124,401.926
,C6723,HLNJFEXZDGURGZ-UHFFFAOYSA-M,C1CN2C(=N[C@H](C2)c2ccccc2)S1,-2.26258504,1.5196,204.291
,C9236,HLNLXXCWUOGYSY-BQKZNIKASA-N,OC(=O)C[C@@H](C(=O)O)NC(=O)N,0.193504266,-0.3262,176.127
,C9697,HLNPDVKKRBWQAA-UHFFFAOYSA-M,C[n+]1ccccc1.[I-],0.655527163,-2.4849,221.039
,C3878,HLNXBLMILSOABY-CMDGGOBGSA-N,O[C@H]([C@H](C(=O)O)O)C(=O)O.CN1CC[C@@]23[C@H]([C@H]1Cc1c3cc(cc1)OC(=O)c1cccnc1)CCCC2,-4.188605797,1.8043,512.552
,C9749,HLPPSQPFFGNHHE-HKUYNNGSSA-N,C[N+](N)(C)C.[I-],0.69456479,-2.7294,202.037
,C7410,HLPPSQPFFGNHHE-IEBWSBKVSA-N,OCC(NC(=O)/C=C/c1ccccc1)(C)C,-1.812090244,1.9778,219.28
,C2118,HLPPSQPFFGNHHE-MJGOQNOKSA-N,CCN([C@H]1CCN(C1)[C@H]1Cc2ccccc2Sc2c1cc(Cl)cc2)C,-6.755415122,5.0523,372.955
,C2120,HLPPSQPFFGNHHE-PKOBYXMFSA-N,CCN([C@@H]1CCN(C1)[C@@H]1Cc2ccccc2Sc2c1cc(Cl)cc2)C,-6.755415122,5.0523,372.955
,C2119,HLQDGCWIOSOMDP-UHFFFAOYSA-N,CCN([C@@H]1CCN(C1)[C@H]1Cc2ccccc2Sc2c1cc(Cl)cc2)C,-6.755415122,5.0523,372.955
,C2121,HLRDXBKIKFQOFS-LREBCSMRSA-N,CCN([C@H]1CCN(C1)[C@@H]1Cc2ccccc2Sc2c1cc(Cl)cc2)C,-6.755415122,5.0523,372.955
,C76,HLUCICHZHWJHLL-INIZCTEOSA-N,Clc1cc(c2ccccc2)c(c(c1Cl)Cl)Cl,-7.1599998,5.9672,291.988
,C6942,HLVFKOKELQSXIQ-UHFFFAOYSA-N,O[C@H]([C@H](C(=O)O)O)C(=O)O.CNC(CCC=C(C)C)C,-2.12794633,0.609,291.341
,C808,HLWPXRDVZZOLHS-UHFFFAOYSA-N,O=C1C=C2C[C@]3(C(=C2C=C1O)c1ccc(c(c1OC3)O)O)O,-2.7,1.3296,300.263
,C909,HLXIMLMWUHODOU-UHFFFAOYSA-N,BrCC(C)C,-2.4300001,2.0373,137.018
,C8023,HLXQFVXURMXRPU-UHFFFAOYSA-L,CCN1CCCN(C1=O)CC,-1.331630274,1.0297,156.225
,C5302,HLYLNSOPZYUUNO-UHFFFAOYSA-L,CCN(c1c(C)n(c2ccccc2)c(=O)n(c1=O)C)CC,-3.166174793,1.6908,287.357
,C9458,HLZKNKRTKFSKGZ-UHFFFAOYSA-N,C[N+](CCCCCCCCCC[N+](C)(C)C)(C)C.[Br-].[Br-],0.378510059,-2.4724,418.294
,C7378,HMCCXLBXIJMERM-UHFFFAOYSA-N,C[N+]1(CCCC1)CCC[n+]1cc2ccccc2c2c1cccc2.[Br-].[Br-],-1.83040986,-2.1222,466.253
,C138,HMEDEBAJARCKCT-UHFFFAOYSA-N,CCCCCCCCCCCCCCO,-6.0500002,4.6798,214.387
,C5336,HMEYVGGHISAPJR-RUJUCOKOSA-N,COCC(=O)Nc1cc(ccc1N/C(=N\C(=O)OC)/NC(=O)OC)Sc1ccccc1,-3.142214024,3.8499,446.477
,C6640,HMGNIKUGDLAONQ-UHFFFAOYSA-N,Clc1cc(NCc2cccs2)c(cc1S(=O)(=O)N)c1n[nH]nn1,-2.320711132,3.6952,370.838
,C1265,HMHFNUWREZQHGJ-UHFFFAOYSA-N,CN([C@@H]1C(=C(C(=O)NCN2CCCC2)C(=O)[C@]2([C@H]1C[C@H]1C(=C2O)C(=O)c2c([C@@]1(C)O)cccc2O)O)O)C,-1.42,0.7986,527.566
,C3731,HMHLTLDEACVVIE-UHFFFAOYSA-M,OC(CN1CCN2C(C1)CCc1c2cccc1)COc1ccc(cc1)Cl.Cl,-4.31324279,4.0216,409.349
,C6084,HMHVCUVYZFYAJI-UHFFFAOYSA-N,FCCCCCCl,-2.665867982,2.365,124.584
,C5425,HMIBKHHNXANVHR-UHFFFAOYSA-N,CCC1(CCC(C)C)C(=O)N=C(N(C1=O)C)[O-].[Na+],-3.084319703,0.9776,262.281
,C6199,HMJCMMTUKIJJAL-UHFFFAOYSA-N,O=S1(=O)CCCCN1c1ccc(cc1)S(=O)(=O)N,-2.597228747,3.1909,290.359
,C471,HMKSXJBFBVGLJJ-UHFFFAOYSA-N,O=C(N(C)C)SCCCCOc1ccccc1,-3.9300001,3.2604,253.36
,C9549,HMMMTSXSWRPUOJ-UHFFFAOYSA-N,CCCNc1ccc(cc1)C(=O)OCC(C[NH+](C)C)O.[Cl-],0.499179199,-2.7523,316.824
,C6527,HMNHFUHYPNQIMA-UHFFFAOYSA-N,OC(=O)CCCN1C(=O)c2c(C1=O)cccc2,-2.392339588,1.0853,233.22
,C6430,HMOFROZMGLUQPI-UHFFFAOYSA-N,Clc1ccc(cc1)C(Cn1cncc1)O,-2.457244591,2.2701,222.671
,C6802,HMOKGDUTHPAVRO-PXJKFVASSA-N,ClCCN(CC(C)C)CCCl.Cl,-2.211945152,3.224,234.594
,C9296,HMPUHXCGUHDVBI-UHFFFAOYSA-N,CCCCNCCSS(=O)(=O)O,0.269779291,2.3838,213.318
,C7906,HMRSJGDFTOUVBW-UHFFFAOYSA-N,CCCC(c1ccccc1)OCn1ccn(/c/1=C/[NH+]=O)C.[Cl-],-1.450363135,-1.7878,323.818
,C9209,HMSVXZJWPVIVIV-ZCFIWIBFSA-N,Cc1nnc(s1)N,0.150908576,1.0099,115.157
,C5988,HMSWAIKSFDFLKN-UHFFFAOYSA-N,Brc1ccc2c(c1)nc(o2)N,-2.726388931,2.7537,213.031
,C1343,HMVVCUFELKIQGF-UHFFFAOYSA-N,CC[C@H](C(C)(C)C)O,-1.15,1.8034,116.201
,C26,HMXQSWAWRXDIOX-UHFFFAOYSA-N,CCCCCCCCCCCCCCCCCCCCCCCCCC,-8.3299999,10.3886,366.707
,C4891,HMYJLVDKPJHJCF-QMMMGPOBSA-N,CCCN1CCN(CC1C(=O)Nc1c(C)cccc1C)CCC.ON=O.ON=O,-3.465153883,3.2809,411.496
,C5167,HNBDRPTVWVGKBR-UHFFFAOYSA-N,OCC(c1ccc(cc1)Br)C(=O)OC1CC2CCC(C1)N2C,-3.267314445,2.6313,368.265
,C5477,HNDVDQJCIGZPNO-RXMQYKEDSA-N,COc1cc2[C@H](C)NCCc2cc1OC,-3.054091623,2.2393,207.269
,C1283,HNFHQWTYUXBRNW-UHFFFAOYSA-N,CCCCC(=O)OC,-1.36,1.3496,116.158
,C1479,HNGOYPWMJBELHN-FJUODKGNSA-N,N[C@@H](C(=O)O)Cc1c[nH]cn1,-0.52999997,0.0644,155.155
,C3588,HNHUULCIDMFRCJ-UHFFFAOYSA-N,ClCCN(C(=O)NC(Cc1ccccc1)(C)C)N=O,-4.455209292,3.3304,283.754
,C2879,HNJBEVLQSNELDL-UHFFFAOYSA-N,CNCC/C=C/1\c2ccccc2Sc2c1cc(OC)cc2.Cl,-5.254069643,5.3939,333.875
,C9235,HNJJXZKZRAWDPF-UHFFFAOYSA-N,CCC(c1ccccn1)C(=S)N.Cl,0.191716861,3.3636,216.731
,C1649,HNKJADCVZUBCPG-UHFFFAOYSA-N,O=C1CCCN1,1.0700001,0.2252,85.1045
,C833,HNNIWKQLJSNAEQ-UHFFFAOYSA-N,CN(CCN(c1ccccn1)Cc1cccs1)C,-2.6400001,2.7113,261.386
,C928,HNRMPXKDFBEGFZ-UHFFFAOYSA-N,CSc1ccccc1,-2.3900001,2.4085,124.203
,C4122,HNVFEIFBCWEIOW-UHFFFAOYSA-N,CN(CCCOc1nn(c2c1cccc2)Cc1ccccc1)C.Cl,-4.024366397,4.2171,345.866
,C560,HNVNYBVNGAOPDJ-UHFFFAOYSA-N,CCC(C)(C)C,-3.55,2.4425,86.1754
,C4546,HNWCOANXZNKMLR-UHFFFAOYSA-N,CCCCNC(=O)OCC(COC(=O)N)(CC)CC,-3.696383284,3.5056,274.357
,C2961,HNYGUIIKHLACQV-UHFFFAOYSA-N,Ic1ccc(nc1)OCCCCCCCN1CCSC1.Cl,-5.149262271,4.7617,442.786
,C9371,HOAZZPXYRQORAE-UHFFFAOYSA-N,NCc1c(CO)cnc(c1O)C.Cl.Cl,0.316751179,2.3509,241.115
,C5335,HOBWAPHTEJGALG-JKCMADFCSA-N,SCCNCCCCOc1ccc(cn1)Br.Cl,-3.142699691,3.7154,341.695
,C9103,HOCKJJPTFSEXEJ-UHFFFAOYSA-N,OCCNC(C(F)(F)F)(C(F)(F)F)O,-0.021774857,0.7724,227.105
,C6775,HODBGFIUYJVOQB-UHFFFAOYSA-N,OS(=O)(=O)O.OCC(c1ccccc1)C(=O)OC1C[C@@H]2CC[C@H](C1)N2C.OCC(c1ccccc1)C(=O)OC1C[C@@H]2CC[C@H](C1)N2C,-2.234537574,4.1656,676.817
,C2409,HODDWHIBEKCKAV-WHQQXFAUSA-N,CC(=CCC(c1cccc2c1cccc2)(C(=O)N)CCN1CCCC1)C,-5.995692207,5.0433,350.497
,C6155,HODHTVIKKXGOCP-FNORWQNLSA-N,CCC(C1CCCC1)CNCCCSS(=O)(=O)O,-2.62292014,4.1902,295.462
,C2770,HOGNMZSUBOLTHT-UHFFFAOYSA-N,Oc1ccc2c(c1)[C@]13CCCC[C@H]3[C@@H](C2)N(CC1)CC(=O)c1ccccc1.Cl,-5.409489161,5.0734,397.938
,C7447,HOKDBMAJZXIPGC-UHFFFAOYSA-N,O/N=C(/c1cccs1)\C,-1.776885783,1.9463,141.191
,C3777,HOKIDJSKDBPKTQ-GLXFQSAKSA-N,CCCN1CCc2c(C1)cccc2NC(=O)c1ccc(cc1)OC,-4.268074939,3.7265,324.417
,C2467,HOLHYSJJBXSLMV-UHFFFAOYSA-N,c1ccc2c(c1)N(CC1CN3CCC1CC3)c1c(S2)cccc1,-5.887624842,4.634,322.467
,C7824,HOMGKSMUEGBAAB-UHFFFAOYSA-N,O=C(N[C@@H]1C(=O)N2[C@@H]1SCC(=C2C(=O)O)COC(=O)C)CCC[C@H](C(=O)O)N,-1.51297407,-0.1006,415.418
,C1144,HOQADATXFBOEGG-OAQYLSRUSA-N,Clc1cccc(c1O)Cl,-1.79,2.699,163.001
,C7358,HORNXRXVQWOLPJ-UHFFFAOYSA-N,ClCCNP1(=O)OCCCN1CCCl,-1.839171934,2.2128,261.086
,C405,HOTDMJSWRGBPDM-UHFFFAOYSA-N,CCO[P@@](=S)(Oc1ccccc1C(=O)OC(C)C)NC(C)C,-4.1900001,4.9311,345.394
,C1452,HOUHCULPUAMVJW-UHFFFAOYSA-N,Oc1cccc(c1)Cl,-0.69999999,2.0456,128.556
,C4705,HOYMCFARXRZEHA-UHFFFAOYSA-N,CCCCCSc1ccc(cc1)CC(=O)NO,-3.598917372,3.4077,253.36
,C4474,HOYRZHJJAHRMLL-UHFFFAOYSA-N,C[S+](CCOc1ccccc1)C.[O-][N+](=O)[O-],-3.747220635,2.2274,245.295
,C4682,HOZOZZFCZRXYEK-HNHWXVNLSA-M,OCCN1CCN(CC1)CC(=O)N1c2ccccc2Sc2c1cccc2.Cl.Cl,-3.616430349,3.9706,442.402
,C6217,HPAYMSPTGHIORM-AATRIKPKSA-N,Cc1cc([N+](=O)[O-])c(c(c1)[N+](=O)[O-])O,-2.587773878,2.5634,198.133
,C8674,HPDZIFBLRDLGFA-UHFFFAOYSA-N,CCCC[N+]1(C)[C@@H]2CC(C[C@H]1[C@H]1[C@@H]2O1)OC(=O)[C@@H](c1ccccc1)CO.[Br-],-0.714508878,-0.8042,440.371
,C7798,HPEKSGQVQCIFCM-UHFFFAOYSA-N,COc1cc(/C=C/C(=O)N2CCCO2)cc(c1OC)OC,-1.529321098,1.8274,293.315
,C9668,HPEMBKNBNFNSLU-UHFFFAOYSA-N,C[NH2+]C(C(c1ccc(c(c1)O)O)O)C.[Cl-],0.631356155,-3.2831,233.692
,C3388,HPGCBEMVWCCLIT-UHFFFAOYSA-N,CCC(=O)OC1(CCN(CC1)Cc1ccccc1)c1ccccc1.Cl,-4.641302801,4.871,359.89
,C8985,HPHBOJANXDKUQD-UHFFFAOYSA-N,CCCCCNCCSS(=O)(=O)O,-0.249460174,2.7739,227.345
,C4942,HPKHFBFBFGSLPZ-UHFFFAOYSA-N,CCCC(=O)N1CCN(CC1)CC=Cc1ccccc1.Cl,-3.425289631,3.3219,308.846
,C9504,HPLFQKUIHGZHPH-UHFFFAOYSA-N,NNC(=O)CC#N,0.419264307,-0.01882,99.0913
,C7658,HPNSFSBZBAHARI-RUDMXATFSA-N,NNC(Cc1ccc(c(c1)OC)OC)C,-1.620361215,2.1893,210.273
,C4150,HPOUDGQCZNPFSH-UHFFFAOYSA-N,CCC(C1(O)CCC(CC1)c1ccccc1)C(=O)O,-4.003739061,3.1861,262.344
,C4385,HPQURZRDYMUHJI-UHFFFAOYSA-N,COc1c(C/C=C(/CCC(=O)O)\C)c(O)c2c(c1C)COC2=O,-3.816659064,2.7332,320.337
,C4573,HPRYBDMNZMRAKJ-IPZCTEOASA-N,CCCC1(CCN(C1)CCc1ccc(cc1)N)c1cccc(c1)O,-3.679942165,4.4798,324.46
,C137,HPXRVTGHNJAIIH-UHFFFAOYSA-N,CCCCCC1CCCC1,-6.0799999,3.7569,140.266
,C5959,HPYNZHMRTTWQTB-UHFFFAOYSA-N,COc1cc(/C=C/C(=O)CCN2CCN(CC2)c2ncccn2)cc(c1OC)OC.Cl,-2.74424752,3.1019,448.943
,C1495,HPYYCONYZSKTMH-UHFFFAOYSA-N,OC1CCCCC1,-0.44,1.3114,100.159
,C1592,HQEROMHPIOLGCB-DFWYDOINSA-M,Cc1ncccc1C,0.38,1.6984,107.153
,C8814,HQFCELSVOFCACS-UHFFFAOYSA-N,OCC(COc1ccccc1N)O,-0.488425098,0.582,183.204
,C9787,HQFWVSGBVLEQGA-UHFFFAOYSA-N,OC(=O)CC[C@@H](C(=O)[O-])N.[K+],0.73231212,-1.3713,185.22
,C4424,HQIRNZOQPUAHHV-UHFFFAOYSA-N,[O-][N+](=O)c1cc(ccc1Oc1ccccc1)[N+](=O)[O-],-3.783567546,4.3417,260.202
,C4549,HQKZCEXAHDXKGB-UHFFFAOYSA-N,CCCCN(CCCC)CCCOC(=O)c1ccc(cc1)N,-3.695019936,4.2991,306.443
,C6249,HQMKNAFRMFCXBZ-UHFFFAOYSA-N,OC(COc1cc(C)ccc1Cl)CNC(C)(C)C,-2.565816181,3.1671,271.783
,C2810,HQRJTGCTWZMXKJ-UHFFFAOYSA-N,O=C(N1c2ccccc2Sc2c1cccc2)CNC(C)(C)C.Cl,-5.338567307,5.4619,348.89
,C7990,HQSCPPCMBMFJJN-UHFFFAOYSA-N,CNCCc1cc(OC)ccc1OC.Cl,-1.370206575,2.6586,231.719
,C4618,HQVJABAPEJNZED-UHFFFAOYSA-N,O=C(Cc1ccccc1)OCCCN1CCCCC1C,-3.657478696,2.9747,275.386
,C5770,HQVZOORKDNCGCK-UHFFFAOYSA-N,N#Cc1ccc(cc1)Br,-2.869360581,2.32078,182.017
,C4774,HQXBYBOVCDPXCB-UHFFFAOYSA-N,C[NH+](CCOC(c1ccccc1Cl)c1ccccc1)C.[Cl-],-3.560288813,-0.4055,326.261
,C1862,HQZMBBVUXLTMFX-UHFFFAOYSA-N,Clc1ccc(c(c1)Cl)Cc1cc(ccc1O)C(CC(C)(C)C)(C)C,-8.224437629,7.0036,365.337
,C6456,HRACVNXTSHEBIU-UHFFFAOYSA-N,COc1cc(cc(c1)OC)Cc1cnc(nc1N)N,-2.439761699,2.4114,260.292
,C3004,HRAKJMXGVYBTRV-UHFFFAOYSA-N,N#CC(c1cccc2c1cccc2)(CC[NH+](C)C)CC=C(C)C.[Cl-],-5.107046635,0.49608,342.905
,C6671,HRBKVYFZANMGRE-UHFFFAOYSA-N,Nc1ccc(c(c1)O)C(=O)O.CCN(CCOC(=O)c1ccc(cc1O)N)CC,-2.296184504,3.308,405.445
,C6608,HRHKSTOGXBBQCB-VFWICMBZSA-N,CCCCn1cnc2c1[nH]cnc2=S,-2.338650453,2.289,208.283
,C265,HRIJSYATNFJXHM-UHFFFAOYSA-N,COP(=S)(Oc1nc(Cl)c(cc1Cl)Cl)OC,-4.8200002,4.5885,322.533
,C8164,HRNKLYSRKFRIQO-UHFFFAOYSA-N,CO[C@@]12[C@@H]3[C@@H](N3C)CN2C2=C([C@H]1COC(=O)N)C(=O)C(=C(C2=O)C)N,-1.218362512,-0.0326,348.354
,C8722,HRPVXLWXLXDGHG-UHFFFAOYSA-N,Nc1[nH]c(N)nc(=S)n1,-0.630801151,0.861,143.17
,C2597,HRQSJRDRVTZESR-UHFFFAOYSA-N,CCCCOc1ccc(cc1)OCC(=O)N(c1cccc(c1)OCC)CCN(C)C.Cl,-5.667408659,5.0398,450.999
,C1639,HRSANNODOVBCST-UHFFFAOYSA-N,NC(=O)C=C,0.95999998,0.358,71.0779
,C2317,HRXZRAXKKNUKRF-UHFFFAOYSA-N,CCCCOc1ccc(cc1)OCC(=O)N(c1ccccc1OC)CCN(CC)CC.Cl,-6.187474971,5.4299,465.025
,C6479,HRYJPHOTGFERGT-UHFFFAOYSA-N,CC(NCC(c1ccc2c(c1)cccc2)O)C,-2.427466793,3.2621,229.317
,C7465,HRYKDUPGBWLLHO-UHFFFAOYSA-N,CCc1ccc(cc1)N,-1.759983333,2.4124,121.18
,C6647,HRYZWHHZPQKTII-UHFFFAOYSA-N,COc1ccc(cc1)CN(c1ncccn1)CCN(C)C.Cl,-2.313083664,2.8554,322.833
,C8693,HRZQMMXCASMDBP-UHFFFAOYSA-N,Nc1ncnc2c1n[nH]n2,-0.685054714,-0.0887,136.115
,C1365,HRZWYHGGJOWGRI-UHFFFAOYSA-N,CCCl,-1.0599999,1.2451,64.5141
,C5949,HSBGTIXXXZBKLK-UHFFFAOYSA-N,COc1cc(Cc2cnc(nc2N)N)cc(c1SC)OC,-2.749630584,3.1333,306.383
,C5052,HSCDRQYKRDWPKB-UHFFFAOYSA-N,OCc1c(CSSCc2cnc(c(c2CO)O)C)cnc(c1O)C.Cl.Cl,-3.345961532,4.1748,441.393
,C7385,HSCVIIISAAEVQT-UHFFFAOYSA-N,CCC(=O)N1C2CNCC1CC2,-1.826255564,0.6259,168.236
,C4876,HSFWRNGVRCDJHI-UHFFFAOYSA-N,COc1ccc2c(c1)c(C)cc(n2)OCCCN1CSCC1,-3.477714931,3.2649,318.434
,C7176,HSHNITRMYYLLCV-UHFFFAOYSA-N,CCCOC(=O)c1ccco1,-1.975798155,1.8464,154.163
,C1583,HSIBGVUMFOSJPD-CFDPKNGZSA-N,C#C,0.28999999,0.2494,26.0373
,C7799,HSJUJKKYLDNMMW-UHFFFAOYSA-N,Oc1ccc2c(c1)oc(=O)cc2C,-1.529096721,1.807,176.169
,C4038,HSMPDPBYAYSOBC-UHFFFAOYSA-N,CC[C@H]1C[C@H]2CN3[C@@H]1[C@@H](C2)c1[nH]c2c(c1CC3)cc(cc2)OC,-4.082045964,3.8745,310.433
,C6159,HSPGJPTZBIXNJN-GQCTYLIASA-N,N/C(=N\CCc1c[nH]c2c1cccc2)/CSS(=O)(=O)O,-2.618138197,3.3847,313.396
,C921,HSQFVBWFPBKHEB-UHFFFAOYSA-N,COc1c2c(=O)cc(oc2c(c2c1cco2)OC)C,-2.4000001,2.8648,260.242
,C5480,HSQOAMOZLVFMKV-UHFFFAOYSA-N,CCOc1ccc(cc1Cl)/C=C/C(=O)NO,-3.052810784,2.6482,241.671
,C825,HSRJKNPTNIJEKV-UHFFFAOYSA-N,Oc1ccc(c(c1Cl)Cl)Cl,-2.6700001,3.3524,197.446
,C7605,HSSAXQPNRNFSLU-UHFFFAOYSA-N,N/C(=N\C1CCCC1)/CSS(=O)(=O)O,-1.660322785,2.6033,238.328
,C8738,HSSBORCLYSCBJR-UHFFFAOYSA-N,OCC(COc1ccccc1OC)O,-0.598173085,0.4272,198.216
,C7898,HSTCMJJFYYQQRG-UHFFFAOYSA-N,CCOC(=O)c1cnc2n(c1=O)C(C)CCC2,-1.453548166,1.3173,236.267
,C898,HSTXHXGDIVZVPT-UHFFFAOYSA-N,Clc1cc(N)c(c(c1)C(=O)O)Cl,-2.47,2.855,206.026
,C1795,HSUGRBWQSSZJOP-RTWAWAEBSA-N,COc1ccc2c(c1)c(CC(=O)Oc1ccccc1C(=O)Oc1ccccc1C(=O)O)c(n2C(=O)c1ccc(cc1)Cl)C,-9.267501588,6.3657,597.999
,C2706,HTAUUADKDLLMRU-UHFFFAOYSA-N,C[S+](Cc1ccccc1)Cc1ccccc1.[O-][N+](=O)[O-],-5.49782638,3.919,291.365
,C5641,HTEKZYRBQZJKOM-UHFFFAOYSA-N,COc1ccc(cc1)[C@@H]1Sc2ccccc2N(C(=O)[C@@H]1OC(=O)C)CCN(C)C,-2.950092526,3.4335,414.518
,C3350,HTFJZNJYLBRWHS-UHFFFAOYSA-N,CCOP(=O)(N1CCCC1=O)Cc1ccc(cc1)c1nc2c(s1)cccc2,-4.681155576,5.2532,400.431
,C9861,HTGRNYUXYDXTCF-UHFFFAOYSA-L,[O-][N+](=O)Nc1[n-]nnn1.[Na+],0.818016432,-0.9714,152.047
,C1845,HTJGQVQAJLHQNY-UHFFFAOYSA-M,Clc1cccc(c1CNCC1CCC(CC1)CNCc1c(Cl)cccc1Cl)Cl.Cl.Cl,-8.436839231,9.3718,533.189
,C8960,HTJXMOGUGMSZOG-UHFFFAOYSA-N,Cn1c2ccccc2c2c1c(C)[n+](CCC[N+](C)(C)C)cc2.[Br-].[Br-],-0.276342147,-2.9683,457.246
,C5096,HTKFJJITPRZSPS-YJOCEBFMSA-N,O=C1[N-]C(=O)OC1(c1ccccc1)c1ccccc1.[Na+],-3.315858346,2.3112,275.235
,C6053,HTLAGNLOROOWLR-UHFFFAOYSA-N,OCCN1CCN(CC1)C(=O)Cn1c(=O)sc2c1cc(Cl)cc2,-2.68266545,0.7287,355.84
,C9738,HTLIIBRHXAULMB-UHFFFAOYSA-N,COCn1ccn(/c/1=C/[NH+]=O)C.[Cl-],0.686888181,-4.6994,205.642
,C7375,HTMIBDQKFHUPSX-UHFFFAOYSA-N,Nc1ccc(cc1)C(=O)Nc1ccncc1C,-1.831491572,2.8787,227.262
,C6405,HTSABYAWKQAHBT-UHFFFAOYSA-N,O=c1c2ccccc2nc2n1CCCCC2,-2.471879111,2.1229,214.263
,C2444,HTSWRCPRGNAPPG-UHFFFAOYSA-N,CN1CCC(C1)CN1c2ccccc2Sc2c1cccc2,-5.93047067,4.2439,296.43
,C8089,HTTLBYITFHMYFK-UHFFFAOYSA-N,CC1CCCC(C1)O,-1.280193644,1.5574,114.185
,C5361,HTWRBOWJUNHVMN-VMPITWQZSA-N,CCCCN1CCC(CC1)(OC(=O)C)C1CCCCC1.Cl,-3.127539463,4.5044,317.894
,C310,HTXDULDRRFEGRQ-UHFFFAOYSA-M,O=c1oc(nc2c1cccc2)c1ccccc1,-4.6100001,2.855,223.227
,C6557,HTYIXCKSEQQCJO-UHFFFAOYSA-N,CN1C2CCC1CN(C2)C/C=C/c1ccccc1,-2.367438356,2.354,242.359
,C5454,HUAOWAKTVMUAOA-UHFFFAOYSA-N,CC(c1ccc(c(c1O)C(=O)[O-])C)C.[Na+],-3.06536687,1.1875,216.209
,C5842,HUATVCMZVINTLH-UHFFFAOYSA-N,CC(C(O)(C)C)(c1ccc(cc1)Cl)O,-2.819926432,2.3184,214.689
,C3975,HUAZGNHGCJGYNP-UHFFFAOYSA-N,OCC(C(=O)N1C2CCC1CN(C2)C)(c1ccccc1)C1CCCCC1,-4.122319448,2.6778,356.502
,C7246,HUCJFAOMUPXHDK-UHFFFAOYSA-N,CC(CC1NC(=S)N(C1=O)C)C,-1.925757612,1.0143,186.275
,C1103,HUDJILALRMSBJY-UHFFFAOYSA-N,CCCOC(=O)CCC,-1.92,1.7397,130.185
,C2312,HUFKLTWJUGBMTC-UHFFFAOYSA-N,Cc1cc(cc(c1CC1=NCCN1)C)C(C)(C)C,-6.190513002,2.9095,244.375
,C6959,HUGIRWXCWTYWPT-UHFFFAOYSA-N,COc1cc(OCCCNCCSS(=O)(=O)O)nc2c1cccc2,-2.114706621,3.6096,372.46
,C7933,HULMNSIAKWANQO-JQKSAQOKSA-N,Clc1nc(Cl)cc(c1)C(=O)N1COCC1,-1.429986123,1.7562,247.078
,C9708,HUMNYLRZRPPJDN-UHFFFAOYSA-N,CSC(c1ccccn1)C(=O)N.Cl,0.660153183,2.4733,218.704
,C5500,HUNIPYLVUPMFCZ-UHFFFAOYSA-N,O=C[C@@]12CC[C@@H](C[C@@]2(O)CC[C@@H]2[C@@H]1CC[C@]1([C@]2(O)CC[C@@H]1C1=CC(=O)OC1)C)O[C@@H]1O[C@@H](C)[C@@H]([C@H]([C@H]1O)O)O,-3.041901712,0.75,550.638
,C1334,HUOSDXNNLBQJLM-UHFFFAOYSA-M,O=Cc1ccccc1,-1.1900001,1.4991,106.122
,C5900,HUOVSPHZAQPRFC-UHFFFAOYSA-N,CCN(CCNC(=O)COc1ccc(cc1)OC)CC,-2.776185374,1.9229,280.363
,C9530,HUPFGZXOMWLGNK-UHFFFAOYSA-N,ICC[N+](C)(C)C.[I-],0.467277449,-1.8684,340.972
,C2374,HUTDUHSNJYTCAR-OAHLLOKOSA-N,ClCC[NH+](Cc1ccccc1)CCOc1cc(C)ccc1C(C)C.[Cl-],-6.075977631,0.8251,382.367
,C3815,HUTYWYSVZSSBDI-UHFFFAOYSA-L,Fc1ccc(c(c1)F)c1ccc(c(c1)C(=O)O)O,-4.237220656,3.0356,250.198
,C850,HUUKPCNVNYZLFY-UHFFFAOYSA-N,COc1ccc(cc1)[C@@](c1cncnc1)(C1CC1)O,-2.5999999,2.1311,256.3
,C5623,HUWXDEQWWKGHRV-UHFFFAOYSA-N,C[N+](C(c1ccccc1)c1ccccc1)(CCCCCC[N+](C(c1ccccc1)c1ccccc1)(C)C)C.[Br-].[Br-],-2.964117622,2.2868,666.572