Name,Compound ID,InChIKey,SMILES,logS,logP,MW
,C7574,CZIXEOZHJUMELR-UHFFFAOYSA-N,CC1CCC(N1/C=C/C=C/C=[N+]/1\C(C)CCC1C)C.CC1CCC(N1/C=C/C=C/C=[N+]/1\C(C)CCC1C)C.[Cl-].[Cl-].O.O.O,-1.687596657,0.7749,647.803
,C7236,CZJHALUOIGDGOP-UHFFFAOYSA-N,Cc1ccc(nc1)OCCCCCNCCSS(=O)(=O)O,-1.932153157,3.5364,334.455
,C3202,CZMRCDWAGMRECN-YYHJFVKSSA-N,CNC(CC12CC3(C)CC(C2)(CC(C1)(C3)C)C)C.Cl,-4.869626835,5.564,285.896
,C1630,CZNLTCTYLMYLHL-UHFFFAOYSA-N,OC[C@H]1O[C@]([C@@H]([C@@H]1O)O)(CO)O[C@H]1O[C@@H](CO)[C@@H]([C@H]([C@@H]1O)O)O,0.79000002,-5.3956,342.296
,C3209,CZPWVGJYEJSRLH-UHFFFAOYSA-N,CCCCCCCC(=O)CCc1ccc(c(c1)OC)O,-4.864873154,4.263,278.387
,C1655,CZRKEJQELXKHAQ-UHFFFAOYSA-N,c1ccncn1,1.1,0.4766,80.088
,C4797,CZSWOHZGKULBMJ-UHFFFAOYSA-N,CCCNS(=O)(=O)c1ccc(cc1)Br,-3.541754144,3.6091,278.166
,C5688,CZTQZXZIADLWOZ-CRAIPNDOSA-N,Cc1cc(OCCCCNCCSS(=O)(=O)O)nc2c1cccc2,-2.917489087,4.2995,370.487
,C6863,CZWHCHAGVJACTE-UHFFFAOYSA-N,O=C(N[C@@H]1C(=O)N2[C@@H]1SCC(=C2C(=O)[O-])C[n+]1ccccc1)Cc1cccs1,-2.167841325,0.011,415.486
,C5120,CZZYITDELCSZES-UHFFFAOYSA-N,CCCCc1cccc(c1)OCC(CO)O,-3.29775083,1.7612,224.296
,C408,DAAFJZUNCOXSKD-UHFFFAOYSA-N,c1ccc(cc1)Cc1ccccc1,-4.1700001,3.2774,168.234
,C7262,DAAQPMSPBHQGQA-UHFFFAOYSA-N,Cn1c(=O)n(C)c2c(c1=O)[nH]cn2.NCCO,-1.918576151,-1.402,241.247
,C945,DABJAQQQVTVZMF-UHFFFAOYSA-N,S=c1ncc2c([nH]1)nccn2,-2.3599999,1.0824,164.188
,C9892,DABUAUJNVONJSH-UHFFFAOYSA-N,CC(C#N)NC(C#N)C,0.889991738,0.79106,123.156
,C4570,DACOQFZGGLCXMA-UHFFFAOYSA-N,OC(=O)C(c1ccc(cc1)Cl)Cc1ccco1,-3.680614515,3.3439,250.678
,C6482,DADUNNXNMMAELK-UHFFFAOYSA-N,CCC1(c2ccccc2)C(=O)N(COC)C(=O)N(C1=O)COC,-2.426798767,1.2088,320.34
,C6907,DAFKCYYRSZSMAJ-UHFFFAOYSA-N,CCCN1C(C)(C)CCC1(C)C,-2.14590237,2.9873,169.307
,C7105,DAFOCGYVTAOKAJ-UHFFFAOYSA-N,CCCCOc1ccc(cn1)N,-2.033173008,2.4239,166.22
,C9075,DAHSCMLJGRYAKQ-UHFFFAOYSA-N,NCC(c1ccccc1)CC(=O)O,-0.078452432,1.9039,179.216
,C5348,DAINBAXHBFSNCQ-UHFFFAOYSA-N,CC1Oc2ccc(cc2N(C1=O)CC[NH+]1CCCC1)Cl.[Cl-],-3.136323477,-0.2292,331.238
,C8620,DALJCFUPKQGBLK-UHFFFAOYSA-M,Nc1ccc(cc1)S(=O)(=O)[N-]c1ccccn1.[Na+],-0.774436909,3.7199,271.271
,C5637,DASGWSCKUOEYLP-DZOOLQPHSA-N,O=C1[N-]C(=O)C(C(=O)N1)(c1ccccc1)c1ccccc1.[Na+],-2.951471176,1.7821,302.26
,C7924,DATKQKVGXFCKFD-UHFFFAOYSA-N,CC(C1CCCCC1)OCn1ccn(/c/1=C/[NH+]=O)C.[Cl-],-1.435593199,-2.3604,301.812
,C3262,DAXYUDFNWXHGBE-KAXDATADSA-N,[O-]C(=O)C(CC(=O)O)(CC(=O)O)O.Cc1oc2c(c1)c(O)c1c(c2OCC(C[NH+](C(C)C)Cc2ccccc2)O)occc1=O,-4.786237835,0.2032,629.609
,C3174,DBABZHXKTCFAPX-UHFFFAOYSA-N,CO/C=C(\[C@H]1C[C@@H]2N(C[C@@H]1CC)CC[C@@]12C(=O)Nc2c1cccc2)/C(=O)OC,-4.891670101,2.7761,384.469
,C4125,DBAKFASWICGISY-BTJKTKAUSA-N,CCCN(S(=O)(=O)c1ccc(cc1)C(=O)O)CCC,-4.022741392,3.2763,285.359
,C8890,DBDVAKGHPZJLTH-UHFFFAOYSA-N,CN(CCC(c1ccccn1)c1ccc(cc1)Cl)C.OC(=O)/C=C\C(=O)O,-0.387905701,3.5304,390.861
,C6431,DBEPLOCGEIEOCV-WSBQPABSSA-N,C1CCN(CC1)CCc1ccccc1,-2.456953743,2.6529,189.297
,C3530,DBGIVFWFUFKIQN-UHFFFAOYSA-N,O=C1C=C[C@]2([C@H](N1)CC[C@@H]1[C@@H]2CC[C@]2([C@H]1CC[C@@H]2C(=O)NC(C)(C)C)C)C,-4.503745234,4.5342,372.544
,C5951,DBGIVFWFUFKIQN-VIFPVBQESA-N,CCNC(Cc1cccc(c1)C(F)(F)F)C,-2.748996271,3.6368,231.257
,C5950,DBHODFSFBXJZNY-UHFFFAOYSA-N,CCN[C@H](Cc1cccc(c1)C(F)(F)F)C,-2.749207042,3.6368,231.257
,C6749,DBIYVUUUZVZMQD-UHFFFAOYSA-N,OCc1ccc(cc1Cl)Cl,-2.24803215,2.4857,177.028
,C8746,DBJNGORDTSVFFQ-LHPQOZGMSA-N,CCC(C(c1ccccc1)O)[NH2+]C.[Cl-],-0.584156089,-2.3042,215.72
,C5788,DBMBOQURAYUHGJ-UHFFFAOYSA-N,OC[C@H]1O[C@H](C(C1O)O)n1cnc2c1ncnc2SC.O,-2.857678607,-0.9046,316.334
,C8290,DBMJMQXJHONAFJ-UHFFFAOYSA-M,CCCC(C(c1ccccc1)O)[NH2+]C.[Cl-],-1.101180351,-1.9141,229.746
,C8835,DBNFXLUBBPXNRJ-UHFFFAOYSA-N,CCCCCCCCCCCCOS(=O)(=O)[O-].[Na+],-0.45996211,4.4649,288.379
,C6092,DBNWBEGCONIRGQ-UHFFFAOYSA-N,O=C(NP(=O)(N1CC1)N1CC1)NC1CC(C)(C)N(C(C1)(C)C)[O],-2.662377157,1.9875,344.37
,C5333,DBPRUZCKPFOVDV-UHFFFAOYSA-N,CC(=O)C(c1ccccc1)c1ccccc1,-3.143237916,3.4075,210.271
,C7961,DBPWSSGDRRHUNT-CEGNMAFCSA-N,CC(NCC(c1ccccc1Cl)O)C.Cl.O,-1.403117299,3.5,268.18
,C285,DBROMEGAUXOXCV-UHFFFAOYSA-L,O=C1CC[C@]2(C(=C1)CC[C@@H]1[C@@H]2CC[C@]2([C@H]1CC[C@]2(O)C(=O)C)C)C,-4.71,3.8384,330.461
,C4036,DCAYPVUWAIABOU-UHFFFAOYSA-N,C[N+]1(CCCCCCC[N+]2(C)CCOCC2)CCOCC1.[I-].[I-],-4.08382556,-4.1839,554.289
,C24,DCGBGORSWRCSGN-UHFFFAOYSA-N,CCCCCCCCCCCCCCCC,-8.3999996,6.4876,226.441
,C3758,DCJINIWOQCDNLR-XERUHLCMSA-N,COc1cc(Cc2cnc(nc2N)N)cc(c1C(C)C)OC,-4.283269618,3.5348,302.371
,C5046,DCKXNKRUGUYEPS-UHFFFAOYSA-N,CCC(c1ccnc2c1cc(O)cc2)(C1CC2CCN1C/C/2=C/C)O.Cl.Cl,-3.349411626,5.1204,411.365
,C2581,DCMURXAZTZQAFB-UHFFFAOYSA-N,ClCCN(c1ccc(cc1)OC(=O)c1ccccc1)CCCl,-5.690990336,4.1898,338.228
,C140,DCOORNZXFCKEKZ-UHFFFAOYSA-N,Clc1ccc(c(c1)c1ccccc1Cl)Cl,-6.02,5.3138,257.543
,C4208,DCOPUUMXTXDBNB-UHFFFAOYSA-N,CCCCOc1nc(C)nc(n1)NCC,-3.957312069,1.8637,210.276
,C1672,DCSUBABJRXZOMT-UHFFFAOYSA-N,OC(=O)Cc1ccccc1Nc1c(Cl)cccc1Cl	,-5.46 ,4.4371,296.149
,C2894,DCUJJWWUNKIJPH-UHFFFAOYSA-N,COC1CN(CCCOc2ccc(cc2)F)CCC1NC(=O)c1cc(Cl)c(cc1OC)N,-5.23585107,4.2681,465.945
,C503,DCVZEBJRNGRUMJ-UHFFFAOYSA-N,Clc1cccc(n1)C(Cl)(Cl)Cl,-3.76,3.5617,230.907
,C3196,DCXYFEDJOCDNAF-UWTATZPHSA-N,[NH3+]CC(CCOc1ccccc1C)CCOc1ccccc1C.[Cl-],-4.871844831,0.4035,349.895
,C1438,DCZRBROKMNUBAE-UHFFFAOYSA-N,NC(=O)C[C@H](C(=O)O)N,-0.74000001,-0.3257,132.118
,C6501,DDBLLZWYBUXMDY-UHFFFAOYSA-N,CCCCN1CCC(CC1)(O)c1cccs1.Cl,-2.411265578,3.5715,275.838
,C5171,DDBREPKUVSBGFI-UHFFFAOYSA-N,ClCC(=O)Nc1nc2c(o1)ccc(c2)Cl,-3.265419034,2.7315,245.062
,C962,DDIZAANNODHTRB-UHFFFAOYSA-N,CCC1(C(=O)NC(=O)NC1=O)c1ccccc1,-2.3199999,1.358,232.235
,C917,DDLAHAHXSPIZQL-UHFFFAOYSA-N,COc1ccc(cc1)C(=O)OC,-2.4100001,1.4818,166.174
,C4540,DDLIGBOFAVUZHB-UHFFFAOYSA-N,O=C(C(c1ccccc1)CNC1CN2CCC1CC2)c1ccccc1,-3.698921976,3.6657,334.455
,C2561,DDMOUSALMHHKOS-UHFFFAOYSA-N,Clc1ccc2c(c1)C(=NCc1n2c(C)nc1)c1ccccc1F,-5.72094122,3.7598,325.767
,C686,DDMYBPQSJMNVFE-UHFFFAOYSA-N,FC(C(Cl)(F)F)(Cl)F,-3.1199999,2.6496,170.921
,C5340,DDNKJFBQMQOIKI-UHFFFAOYSA-N,CCCCOc1cc(C=CC(=O)NO)ccc1OC,-3.140450738,2.7836,265.305
,C6627,DDOXROFFXDWGCO-UHFFFAOYSA-N,Brc1ccc2c(c1)oc(=O)[nH]2,-2.330450322,1.8836,214.016
,C1774,DDQCSVBNRCHUCE-UHFFFAOYSA-L,c1ccc2c(c1)C(NCC2)CC12CCC(CC1)(CC2)CC1NCCc2c1cccc2,-9.7376178,6.5388,400.599
,C9468,DDQGNGANBLTNFD-UHFFFAOYSA-N,C[N+](Cc1ccccc1)(CCOCC[N+](Cc1ccccc1)(C)C)C.[Cl-].[Cl-],0.383601164,-2.4358,413.424
,C4744,DDRGWEZDDZXEBZ-UHFFFAOYSA-N,CSc1nc2c(o1)ccc(c2)Cl,-3.576817971,3.2031,199.657
,C2754,DDUHZTYCFQRHIY-CQLKUDPESA-N,CNCCCC12CC3CC(C1)CC(C2c1ccccc1)C3.Cl,-5.436851443,5.789,319.912
,C308,DDUHZTYCFQRHIY-RBHXEPJQSA-N,COC1=CC(=O)C[C@H]([C@]21Oc1c(C2=O)c(OC)cc(c1Cl)OC)C,-4.6100001,2.8103,352.766
,C1689,DDUIUBPJPOKOMV-UHFFFAOYSA-N,COC1=CC(=O)C[C@H]([C@@]21Oc1c(C2=O)c(OC)cc(c1Cl)OC)C	,-3.25 ,2.8103,352.766
,C740,DDWKCBUSQTZBMR-UHFFFAOYSA-N,COCCCNc1nc(SC)nc(n1)NC(C)C,-2.9300001,2.0082,271.382
,C1746,DDWXNUFFAFBJDG-UHFFFAOYSA-N,N#CC(c1cccc2c1cccc2)(CCN(CC=C(C)C)CC=C(C)C)CCN(CC=C(C)C)CC=C(C)C,-11.02187123,8.85018,525.81
,C8988,DDZPFBBCIRKVTQ-UHFFFAOYSA-N,O=C1NC(=S)N(C1)C(=O)C,-0.234406922,-0.4837,158.178
,C2133,DEFHRKSFURUDIU-UHFFFAOYSA-N,CCCCOc1ccc(cc1)OCC(=O)N(c1cccc(c1)OC)CCC[NH+](CC)CC.[Cl-],-6.708185268,0.6049,479.052
,C3663,DEGBQQPZHARPFX-UHFFFAOYSA-N,OC(=O)COc1ccc(c(c1Cl)Cl)C(=O)c1ccc(o1)Cl,-4.376184529,3.9342,349.551
,C2246,DEGNVZJJUSWXDF-UHFFFAOYSA-N,CNC(CC12CC3(C)CC(C2c2ccccc2)CC(C1)(C3)C)C.Cl,-6.348418465,6.5676,347.965
,C9438,DEHWKTMXSOUIDZ-UHFFFAOYSA-N,CC(NCCSS(=O)(=O)O)(C)C,0.364715733,2.3822,213.318
,C3958,DEKWZWCFHUABHE-HNNXBMFYSA-N,OCCN(c1c(I)c(C(=O)NC(CO)CO)c(c(c1I)C(=O)NC(CO)CO)I)C(=O)C,-4.135186744,-0.2066,791.112
,C154,DEKWZWCFHUABHE-UHFFFAOYSA-N,CC(=O)C[C@H](c1c(=O)oc2c(c1O)cccc2)c1ccc(cc1)Cl,-5.8400002,4.263,342.773
,C2501,DELIDJVURHPKPP-UHFFFAOYSA-N,CC(=O)CC(c1c(=O)oc2c(c1O)cccc2)c1ccc(cc1)Cl,-5.836039123,4.263,342.773
,C5024,DENPQNAWGQXKCU-UHFFFAOYSA-N,N/C(=N/C1CCCCCC1)/CSSC/C(=N/C1CCCCCC1)/N.Cl.Cl,-3.370465113,7.5324,443.541
,C8753,DEOICCGWRFAQNC-UHFFFAOYSA-N,NC(=O)c1cccs1,-0.573770075,1.5473,127.164
,C3593,DERJYEZSLHIUKF-UHFFFAOYSA-N,ClCCN(c1cc(C=O)ccc1C)CCCl,-4.450035468,3.0915,260.16
,C8447,DERZBLKQOCDDDZ-JLHYYAGUSA-N,CNNCc1ccc(cc1)C(=O)NC(C)C.Cl,-0.942871546,3.0235,257.76
,C6036,DEUSSOTUEGORRC-UHFFFAOYSA-N,c1ccc(cc1)/C=C/CN1CCN(CC1)C(c1ccccc1)c1ccccc1,-2.691404501,4.9828,368.514
,C4979,DEVDLFIOPPCXAW-UHFFFAOYSA-N,O=c1[nH]c2c(o1)c(Cl)cc(c2Cl)Cl,-3.398756736,3.0813,238.455
,C2235,DEVLSRYIZQUILC-UHFFFAOYSA-N,Cc1ccccc1CNCC1CCC(CC1)CNCc1ccccc1C.Cl.Cl,-6.3912901,7.375,423.462
,C4302,DEWLEGDTCGBNGU-UHFFFAOYSA-N,Clc1ccc2c(c1)C(=NC(C(=O)N2)[n+]1ccc(cc1)C(=O)N)c1ccccc1Cl.[Cl-],-3.872694613,0.646,461.728
,C1548,DEZFNHCVIZBHBI-ZHACJKMWSA-N,ClCC(CCl)O,-0.11,0.8249,128.985
,C1815,DFAXIWKIBAGXSH-UHFFFAOYSA-N,O=C(c1c(O)c(Cc2c(O)c(C)c(c(c2O)C(=O)C)O)c(c2c1OC(C)(C)C=C2)O)/C=C/c1ccccc1,-8.88924371,5.3967,516.539
,C1884,DFBKLUNHFCTMDC-CRWCAAKDSA-N,COc1ccc(cc1)CCCC[NH2+]CCSSCC[NH2+]CCCCc1ccc(cc1)OC.[Cl-].[Cl-],-8.021587696,-2.4344,549.66
,C120,DFBNXHDETSPXEW-UHFFFAOYSA-N,ClC1=C(Cl)[C@@]2(C([C@@]1(Cl)[C@H]1[C@@H]2[C@H]2C[C@@H]1[C@@H]1[C@H]2O1)(Cl)Cl)Cl,-6.29,4.4814,380.909
,C9602,DFBQRUOKBUEDCF-UHFFFAOYSA-N,NCCCNC(CSS(=O)(=O)O)C.Cl,0.577109918,2.8233,264.794
,C2049,DFCAFRGABIXSDS-UHFFFAOYSA-N,C1CCC(=CC1)CNCC1CCC(CC1)CNCC1=CCCCC1.CC(=O)O.CC(=O)O,-7.01536361,5.9364,450.654
,C595,DFCDOVXJNHFKPW-UHFFFAOYSA-L,CCN(C(=O)SCC)C1CCCCC1,-3.4000001,3.5141,215.356
,C9259,DFDGRKNOFOJBAJ-UHFFFAOYSA-N,CC[N+](CCOc1ccc(cc1)OCC[N+](CC)(CC)C)(CC)C.[I-].[I-],0.227425295,-2.575,592.337
,C6285,DFDWGIZZMBNYBV-UHFFFAOYSA-N,OC(=O)C1=CC(=O)C(O1)(C)c1ccccc1,-2.540911005,1.4696,218.205
,C7024,DFEYYRMXOJXZRJ-UHFFFAOYSA-N,OCC1COC(O1)(C)CC(C)C,-2.073830553,1.1564,174.237
,C7672,DFHBBMJTBBLQSA-UHFFFAOYSA-N,FCOC(C(F)(F)F)C(F)(F)F,-1.613087884,2.4232,200.055
,C4467,DFINKRRPZPLYKC-UHFFFAOYSA-N,OC(=O)Cc1ccc(c(c1)Cl)OCc1ccccc1,-3.752725412,3.5461,276.715
,C2412,DFOBXZFAOORPAD-UHFFFAOYSA-N,ClCCN(c1ccc(cc1)OC(=O)c1ccc(cc1)F)CCCl,-5.993007278,4.3289,356.219
,C6808,DFOXKPDFWGNLJU-RXMQYKEDSA-N,COc1cc(CCNC(=O)c2ccc(cc2)C#CC(O)(C)C)ccc1OC,-2.203464518,3.1896,367.438
,C1468,DFPAKSUCGFBDDF-UHFFFAOYSA-N,C[C@H](C(C)(C)C)O,-0.62,1.4133,102.175
,C1617,DFPFDNHWEJASOG-UHFFFAOYSA-N,NC(=O)c1cccnc1,0.61000001,0.8808,122.125
,C6065,DFPHFJOBKOEGQC-UHFFFAOYSA-L,CNCC=C(c1ccccc1)c1ccccc1.Cl,-2.675028369,4.5306,259.774
,C9455,DFQICHCWIIJABH-UHFFFAOYSA-N,CC[N+](CCOCC[N+]1(CC)CCOCC1)(C)C.[Br-].[Br-],0.376512936,-5.067,420.224
,C6795,DFSBPMGFJCFTFQ-UHFFFAOYSA-L,Oc1ccc2c(c1)cc(cc2)O,-2.218531818,2.251,160.169
,C9499,DFYRUELUNQRZTB-UHFFFAOYSA-N,C[N+](CCC[n+]1ccc2c(c1)cccc2)(C)C.[Br-].[Br-],0.408753929,-3.7684,390.157
,C7811,DGABKXLVXPYZII-QVHPXOQOSA-N,COc1cc(ccc1O)C(=O)C,-1.52159827,1.6034,166.174
,C486,DGAIEPBNLOQYER-UHFFFAOYSA-N,O[C@H]1CC[C@]2([C@H](C1)[C@@H](O)C[C@@H]1[C@@H]2CC[C@]2([C@H]1CC[C@@H]2[C@H](CCC(=O)O)C)C)C,-3.8199999,4.4779,392.572
,C3514,DGBIGWXXNGSACT-UHFFFAOYSA-N,COCC(=O)Nc1c(I)c(C(=O)NCC(CO)O)c(c(c1I)C(=O)N(CC(CO)O)C)I,-4.522576571,0.0574,791.112
,C575,DGEZNRSVGBDHLK-UHFFFAOYSA-N,O=C1CN=C(c2c(N1)ccc(c2)[N+](=O)[O-])c1ccccc1Cl,-3.5,3.1345,315.711
,C7386,DGIAUNUPXILTJW-VRWDCWMNSA-N,c1ccc2c(n1)c1ncccc1cc2,-1.826026631,2.783,180.205
,C9009,DGIRRQAONAAJCV-UHFFFAOYSA-N,O=C(Nc1c(I)cc(c(c1I)C(=O)O)I)CCCCC(=O)Nc1c(I)cc(c(c1I)C(=O)O)I.CNC[C@@H]([C@H]([C@@H]([C@@H](CO)O)O)O)O.CNC[C@@H]([C@H]([C@@H]([C@@H](CO)O)O)O)O,-0.184747346,1.0594,1530.19
,C4640,DGMKFQYCZXERLX-UHFFFAOYSA-N,OC(=O)Cc1ccc2c(c1)sc(n2)c1ccccc1,-3.646361785,3.5904,269.318
,C5007,DGMMLYVLXGFBJP-UHFFFAOYSA-N,CCCN(C(=O)C(NC(=O)c1ccccc1)CCC(=O)O)CCC,-3.3806478,2.6893,334.41
,C8025,DGMPVYSXXIOGJY-UHFFFAOYSA-N,OC(c1ccccc1)CN1CCCCC1.Cl,-1.330304207,2.9458,241.757
,C6776,DGRHWUCYLVPQJY-UHFFFAOYSA-N,CCCCc1ccc(nc1)C(=O)O,-2.232194726,2.1224,179.216
,C3488,DGUOEMCUTWLIGZ-YDBSYXHISA-N,O=C1C(c2ccc(cc2)C(F)(F)F)C(=O)c2c1cccc2,-4.545095737,3.8682,290.237
,C6673,DGUPZAJJVUHQHW-UHFFFAOYSA-N,CO[C@]12[C@H]3N[C@H]3CN1C1=C([C@H]2COC(=O)N)C(=O)C(=C(C1=O)C)Nc1ccccc1,-2.294133028,1.5422,410.423
,C4403,DGXWNDGLEOIEGT-UHFFFAOYSA-N,Clc1ccc2c(c1)c(=O)c1c(n2CCC[NH+](C)C)nccc1.[Cl-],-3.803352333,-1.2583,352.258
,C8399,DGYOWBYTFBEFCO-UHFFFAOYSA-N,CC(Cc1ccc(cc1)F)N,-0.981138783,2.4157,153.197
,C6079,DHAXYFHOHVOKHH-UHFFFAOYSA-N,CNC(c1ccccc1)CC(=O)c1ccc(cc1)OC.Cl,-2.667214428,4.4216,305.799
,C3826,DHBUISJCVRMTAZ-UHFFFAOYSA-M,OC(=O)C(=O)O.CN(CCCC1(OC(c2c1cccc2)C)c1ccccc1)C,-4.229953449,3.5188,385.453
,C9768,DHCQZOVMJDSSAA-UHFFFAOYSA-N,O=c1[nH]c(=O)[nH]c(c1)C(=O)[O-].[K+],0.711779848,-2.5733,194.187
,C8140,DHCUQNSUUYMFGX-UHFFFAOYSA-N,CC(C1(C)CC(=O)NC(=O)C1)C,-1.237679265,1.4141,169.221
,C5273,DHDSALKEOLDSSE-UHFFFAOYSA-N,CCCCNc1ccc(c(c1)O)C(=O)OCCN(C)C,-3.182910636,2.3956,280.363
,C4294,DHDVOXBKOXIIBW-UHFFFAOYSA-N,CCCCCOc1ccccc1C(=O)C,-3.881498359,3.4582,206.281
,C2884,DHFMGRKPVMBKKX-UHFFFAOYSA-N,C=CCc1ccccc1OCC(CN1CCN(CC1)c1ccc(c(c1)C)C)O.Cl.Cl,-5.251693774,5.2007,453.445
,C5299,DHGDNDUPFCKHED-UHFFFAOYSA-N,CCN(CCCOC(=O)C=Cc1ccccc1)CC.Cl,-3.168606865,3.7769,297.82
,C7076,DHKHKXVYLBGOIT-UHFFFAOYSA-N,OCC(COc1ccc2c(n1)cccc2)O,-2.050885202,0.9668,219.237
,C1497,DHLLCGOIGXQUQS-UHFFFAOYSA-N,CCOC(OCC)C,-0.43000001,1.4054,118.174
,C7860,DHNCTQIFOGRFJF-UHFFFAOYSA-N,NCCCNc1ccc(c2c1NCCC2)OC.Cl,-1.484841869,3.5273,271.786
,C8745,DHNRXCVJLHOLKS-UHFFFAOYSA-N,CC[NH2+]C(C(c1ccccc1)O)C.[Cl-],-0.584156089,-2.3042,215.72
,C7946,DHPRQBPJLMKORJ-XRNKAMNCSA-N,N#Cc1ccc(nc1)OCCCCCNCCSS(=O)(=O)O,-1.421091284,3.09968,345.438
,C5750,DHTRHEVNFFZCNU-UHFFFAOYSA-N,CN([C@@H]1C(=O)C(=C([C@@]2([C@H]1C[C@H]1C(=C(O)c3c([C@@]1(C)O)c(Cl)ccc3O)C2=O)O)O)C(=O)N)C,-2.880887955,0.9827,478.88
,C5647,DHTZKRIZYPAKLO-UHFFFAOYSA-N,CCC(=O)N(c1ccccc1)C(CN1CCCCC1)C,-2.946335148,3.2419,274.401
,C237,DHWRNDJOGMTCPB-UHFFFAOYSA-N,ClC(CC(=O)NC1=C(Cl)C(=O)c2c(C1=O)cccc2)Cl,-5.0300002,3.2169,332.567
,C371,DHXFICREWVJWEG-UHFFFAOYSA-N,O=C(N(C)C)Nc1ccc(c(c1)Cl)n1nc(oc1=O)C(C)(C)C,-4.3299999,2.9429,338.789
,C2373,DHXVGJBLRPWPCS-UHFFFAOYSA-N,CCCCOc1ccc(cc1)OCC(=O)N(c1ccccc1OC)CCN1CCCC1.Cl,-6.076763345,5.1218,463.009
,C1557,DHZBEENLJMYSHQ-XCVPVQRUSA-N,C1CCCOC1,-0.029999999,1.1869,86.1323
,C4387,DHZVWQPHNWDCFS-UHFFFAOYSA-N,O=C1OC(=O)[C@@]2([C@@]1(C)[C@H]1CC[C@@H]2O1)C,-3.815582175,0.6436,196.2
,C625,DIAKBGLNNAQLNA-UHFFFAOYSA-N,Ic1cc(I)c(c(c1)C(=O)O)O,-3.3099999,2.2996,389.914
,C7638,DICMPTSIFYQYRL-UHFFFAOYSA-N,CCCC(C(CO)CO)C,-1.634836782,1.0234,146.227
,C2274,DICNWOXTWUJPIQ-UHFFFAOYSA-N,CCCCN(C(=O)N1CCCCC1)CCN(C(=O)N1CCCCC1)CCCC,-6.282294263,4.2782,394.594
,C8044,DIFUVRDFPAVFKW-GOOHIXEASA-N,Nc1oc2c(n1)cc(c(c2)O)Cl,-1.31973,2.3502,184.58
,C2659,DIHMPACCSOVKNI-UHFFFAOYSA-N,[O-][N+](=O)O.CCC(=O)N([C@H]1CCN(C[C@H]1C)CCc1ccccc1)c1ccccc1.CCCO,-5.561481188,4.8848,473.605
,C6950,DIIMOZWYSXJOFG-UHFFFAOYSA-N,OCC(COc1ccccc1C)(CO)CO,-2.121634705,0.3371,226.269
,C6564,DIJNKKIYOHCAPO-UHFFFAOYSA-N,OCCNCCC12CC3CC(C2)CC(C1)C3.Cl,-2.365451196,3.3677,259.815
,C4498,DIKBFYAXUHHXCS-UHFFFAOYSA-N,CCN(CCOC(c1ccccc1)c1ccccc1)CC.Cl,-3.728276386,4.9364,319.869
,C1106,DILZDMWFWNCRNK-UHFFFAOYSA-N,BrC(Br)Br,-1.91,2.4547,252.731
,C6983,DIRYDVOOUHTURX-UHFFFAOYSA-N,OCC(COCc1ccc(cc1)CC)O,-2.100067019,1.1188,210.27
,C6906,DIWRORZWFLOCLC-OAHLLOKOSA-N,CCN1C(C)(C)CCCC1(C)C,-2.14590237,2.9873,169.307
,C549,DIWRORZWFLOCLC-UHFFFAOYSA-N,Clc1ccc2c(c1)C(=N[C@@H](C(=O)N2)O)c1ccccc1Cl,-3.5999999,2.6749,321.158
,C4703,DIZOIPNFCMPXFR-UHFFFAOYSA-L,Clc1ccc2c(c1)C(=NC(C(=O)N2)O)c1ccccc1Cl,-3.603627419,2.6749,321.158
,C9378,DJDFFEBSKJCGHC-UHFFFAOYSA-N,C[N+](CCc1ccc(cc1)[N+](C)(C)C)(C)C.[I-].[I-],0.322224289,-3.86,476.179
,C9246,DJDNLDKPWOJAFU-UHFFFAOYSA-L,C1CN=C(N1)Cc1cccc2c1cccc2.Cl,0.209823934,2.9504,246.735
,C9422,DJEUWFADFGMDAH-UXBLZVDNSA-N,CC[N+](CCS(=O)CC[N+](CC)(CC)CC)(C)C.[Br-].[Br-],0.358221583,-3.4184,438.306
,C3896,DJEUXBQAKBLKPO-UHFFFAOYSA-N,CCC(=O)N1C2CCC1CN(C2)CC/C=C/c1ccccc1,-4.178177274,3.0509,298.423
,C44,DJGAAPFSPWAYTJ-UHFFFAOYSA-M,Clc1ccc(c(c1)Cl)c1c(Cl)c(Cl)c(c(c1Cl)Cl)Cl,-7.9200001,7.9274,395.323
,C9538,DJIIKEYPSTUVKV-UHFFFAOYSA-N,CN(c1c(C)n(n(c1=O)c1ccccc1)C)CS(=O)(=O)[O-].[Na+],0.477115162,1.5041,333.339
,C5792,DJILXZDYSGJWKM-UHFFFAOYSA-N,NC(=O)C(c1cccc2c1cccc2)Cc1ccco1,-2.855555186,3.9447,265.307
,C8100,DJPYUBOZKZSLFO-UHFFFAOYSA-N,CN1C2CCC1CN(C2)C(=O)CC(=O)O,-1.269940781,-0.3581,212.246
,C5565,DJPZSBANTAQNFN-LDZURRIXSA-N,ClCCN(C1OCCN(C1)S(=O)(=O)c1ccc(cc1)C)CCCl,-3.004939134,3.1403,381.318
,C220,DJQJFMSHHYAZJD-UHFFFAOYSA-N,CC(=O)O[C@H]1CC[C@@H]2[C@]1(C)CC[C@H]1[C@H]2CCC2=CC(=O)CC[C@]12C,-5.1799998,4.45,330.461
,C9532,DJQOOSBJCLSSEY-UHFFFAOYSA-N,O=C(Nc1c(C)cccc1C)CN(CC(=O)O)CC(=O)O,0.468667133,0.7861,294.303
,C9237,DJRKHTCUXRGYEU-UHFFFAOYSA-N,[O-][n+]1cc(ncc1C)C(=O)O,0.195583207,0.5167,154.123
,C4548,DJVBBLAMBGWOCZ-UHFFFAOYSA-N,CCCCCCOc1ccc(cc1)N,-3.696259762,3.8091,193.285
,C8178,DJWYOLJPSHDSAL-ROUUACIJSA-N,O=C1C2C3CCC(C2C(=O)N1c1ccccc1Cl)O3,-1.208053704,2.0718,277.703
,C8385,DJYRKMZXPCJMMA-UHFFFAOYSA-N,OCC([C@H](C(=O)NCCC(=O)NCCSSCCNC(=O)CCNC(=O)[C@@H](C(CO)(C)C)O)O)(C)C,-0.990949029,-0.0648,554.721
,C2985,DKGZKTPJOSAWFA-UHFFFAOYSA-N,CCC(C1=CCC(CC1)CC(C)C)C(=O)O,-5.128197968,3.8698,224.339
,C3359,DKLYDESVXZKCFI-UHFFFAOYSA-N,Fc1ccc(cc1)C(=O)CCCN1CCC2(CC1)C(=O)NCN2c1ccccc1,-4.670728429,3.5488,395.47
,C6412,DKMGXHJWXGGADS-UHFFFAOYSA-N,CC(=O)N(c1ccccc1)c1ccccc1,-2.467070997,3.3712,211.259
,C3448,DKMROQRQHGEIOW-UHFFFAOYSA-N,CCN(CCCC(Nc1cc(OC)cc2c1nccc2)C)CC.Cl,-4.582183097,5.0408,351.914
,C1383,DKMVJQCQTCLYIF-UHFFFAOYSA-M,CCOC(=O)CCC(=O)OCC,-0.95999998,0.8928,174.194
,C8120,DKNDBIIKSJWQFL-UHFFFAOYSA-N,CC[N+](CCOC(=O)C(c1ccccc1)(c1ccccc1)O)(CC)C.[Br-],-1.25093753,-0.0439,422.356
,C9514,DKNQVJWYIUJWNC-UHFFFAOYSA-N,CN(CCC(=O)c1ccccc1)C.Cl,0.43286388,2.623,213.704
,C7843,DKNWSYNQZKUICI-UHFFFAOYSA-N,NC(=N)c1cccc(c1)[N+](=O)[O-].Cl,-1.497789567,3.0041,201.61
,C7984,DKPDJFHVGNUHSL-UHFFFAOYSA-N,NC12CC3CC(C2)CC(C1)C3,-1.380915312,2.6142,151.249
,C8102,DKPFZGUDAPQIHT-UHFFFAOYSA-N,OCCOc1ccc(cc1C(=O)N)Br,-1.268990626,1.6194,260.085
,C1317,DKPMWHFRUGMUKF-ROFVJESDSA-N,CCCCOC(=O)C,-1.24,1.3496,116.158
,C369,DKRAUVNSWYTDCB-UHFFFAOYSA-N,O[C@H]1CC[C@]2([C@H](C1)[C@@H](O)[C@@H]([C@@H]1[C@@H]2CC[C@]2([C@H]1CC[C@@H]2[C@H](CCC(=O)O)C)C)O)C,-4.3499999,3.4487,408.571
,C7241,DKROWFJGHDLNFQ-UHFFFAOYSA-N,CCC1(C(=O)NC(=O)NC1=O)C(C)(C)C,-1.927691298,1.4525,212.246
,C3322,DKVCHMQHUMLKPO-UHFFFAOYSA-N,ClCCN(c1cc(ccc1C)C(=O)O)CCCl,-4.707156785,2.9772,276.159
,C6182,DKYWVDODHFEZIM-NSHDSACASA-N,COc1ccc(c(c1)C(=O)CC)OC,-2.604369179,2.2965,194.227
,C516,DKYWVDODHFEZIM-UHFFFAOYSA-N,OC(=O)[C@H](c1cccc(c1)C(=O)c1ccccc1)C,-3.7,3.1057,254.281
,C4543,DLCYDUCHUVPZDO-UHFFFAOYSA-M,OC(=O)C(c1cccc(c1)C(=O)c1ccccc1)C,-3.697750566,3.1057,254.281
,C6868,DLEXINLCPPEMMI-UHFFFAOYSA-N,C/C(=C\C=C\N1CCCCCC1)/C=[N+]1CCCCCC1.[Cl-],-2.16629883,0.8804,310.905
,C4221,DLFVBJFMPXGRIB-UHFFFAOYSA-N,CCCCCCS(=O)CCCCCC,-3.944798965,4.7614,218.399
,C1667,DLGIIZAHQPTVCJ-UHFFFAOYSA-N,CC(=O)N,1.58,0.1919,59.0672
,C5782,DLGOEMSEDOSKAD-UHFFFAOYSA-N,CN(C(Cc1ccccc1)C)Cc1ccco1,-2.863517967,3.3426,229.317
,C7515,DLGSOJOOYHWROO-WQLSENKSSA-N,ClCCNC(=O)N(CCCl)N=O,-1.728447145,1.5479,214.05
,C5563,DLHWKJDYXPNWAI-UHFFFAOYSA-N,NC(=S)N/N=C\1/c2ccccc2N(C1=O)C,-3.007624316,1.3565,234.278
,C8729,DLILPLIAJBPSMW-UHFFFAOYSA-N,CCOC(C(Cl)(Cl)Cl)O,-0.612070527,1.7115,193.456
,C3640,DLKPVUMZHGCNPO-UHFFFAOYSA-N,CC(N1CCC(CC1)OC(=O)Nc1c(C)cccc1C)C,-4.394821234,3.7356,290.401
,C6161,DLKQHBOKULLWDQ-UHFFFAOYSA-N,SCCNCCCCOc1ccc(cn1)Cl.Cl,-2.617585189,3.6063,297.244
,C368,DLNKOYKMWOXYQA-APPZFPTMSA-N,Brc1cccc2c1cccc2,-4.3499999,3.6023,207.067
,C9110,DLNKOYKMWOXYQA-CBAPKCEASA-N,O[C@H](c1ccccc1)[C@H](N)C,-0.006391373,1.7675,151.206
,C9109,DLNKOYKMWOXYQA-VXNVDRBHSA-N,O[C@H](c1ccccc1)[C@@H](N)C,-0.006391373,1.7675,151.206
,C9111,DLQDGZNPWADSOS-UHFFFAOYSA-N,O[C@@H](c1ccccc1)[C@H](N)C,-0.005517834,1.7675,151.206
,C2062,DLRJIFUOBPOJNS-UHFFFAOYSA-N,Clc1ccccc1C[NH2+]C(CCCCC([NH2+]Cc1ccccc1Cl)C)C.[Cl-].[Cl-],-6.956026899,-1.8342,466.315
,C960,DLTCOOCETROEDD-UHFFFAOYSA-N,CCOc1ccccc1,-2.3299999,2.0853,122.164
,C7273,DLTOEESOSYKJBK-UHFFFAOYSA-N,CN1CCC(CC1)(O)C1CCCCC1.Cl,-1.912441321,2.7633,233.778
,C3134,DLURHXYXQYMPLT-UHFFFAOYSA-N,OCCN1CCN(CC1)CCCN1c2ccccc2C=Cc2c1cccc2.Cl.Cl,-4.940067904,4.8533,436.418
,C6353,DLVULIKDGUJXMV-UHFFFAOYSA-N,Cc1ccc(c(c1)[N+](=O)[O-])N,-2.502852623,2.5898,152.151