Name,Compound ID,InChIKey,SMILES,logS,logP,MW
,C2088,RSDOPYMFZBJHRL-UHFFFAOYSA-N,Clc1cccc(c1)CNCC1CCC(CC1)CNCc1cccc(c1)Cl.Cl.Cl,-6.845936943,8.065,464.299
,C4900,RSFOTOSOKJMMCB-UHFFFAOYSA-N,O=C(CN1CCN(CC1)CCc1ccccc1)NN=Cc1ccc(o1)[N+](=O)[O-],-3.455604997,2.2881,385.417
,C8709,RSFZTDPRBQURSI-UHFFFAOYSA-N,O=C1CCCN1CC#CCN1CCCC1,-0.653136731,0.5838,206.284
,C9942,RSHDGEKIBABJND-UHFFFAOYSA-N,CN(C=O)N,1.130281439,0.2845,74.0818
,C4743,RSIOYTUKUFAJPC-UHFFFAOYSA-N,CN(CC(C(c1ccccc1C)(c1ccccc1)O)C)C.Cl,-3.578635123,4.2306,319.869
,C2313,RSIWXFIBHXYNFM-NSHDSACASA-N,CC(CNC12CC3CC(C2)CC(C1)C3)C.Cl,-6.188410459,4.3937,243.816
,C4568,RSJKGSCJYJTIGS-UHFFFAOYSA-N,O=C(N1CC=Cc2c1cccc2)c1ccccc1,-3.682287227,3.4252,235.281
,C6063,RSKJGHLGGFOENO-UHFFFAOYSA-N,COC1=CC(=O)O[C@H](C1)CCc1ccc2c(c1)OCO2,-2.676439022,2.1937,276.285
,C1939,RSMPEQBSFXBQMJ-UHFFFAOYSA-N,CCCCCCCCCCC,-7.550542422,4.5371,156.308
,C4790,RSPPUQXSQYBMEE-UHFFFAOYSA-N,CN(CC=C(c1ccc(cc1)F)c1ccc(cc1)F)C.Cl,-3.5505439,4.7601,309.781
,C6348,RSQUAQMIGSMNNE-UHFFFAOYSA-N,CCCCOc1ccc(cc1)CC(=O)N,-2.506310194,2.5936,207.269
,C615,RSTUMYIIRQDRKC-UHFFFAOYSA-N,OCCN(c1ccc2c(n1)n(CC)c1ncccc1c(=O)[nH]2)C,-3.3599999,1.2834,313.354
,C8362,RSVYIRQHLXEENT-UHFFFAOYSA-N,O=C1Cc2c(N1C)cccc2,-1.018620834,1.2705,147.174
,C7307,RSWGJHLUYNHPMX-UMGGQSCQSA-N,OCC(COc1cccc(c1)C)(O)C,-1.879501049,1.1171,196.243
,C4246,RSWPVXFVQHCCCI-UHFFFAOYSA-N,OC(=O)COc1ccc(c(c1Cl)Cl)C(c1cccs1)O,-3.928285057,3.6,333.187
,C495,RSXZRFHNNTTWCB-UHFFFAOYSA-N,CC(C1=CC2=CC[C@H]3[C@@]([C@@H]2CC1)(C)CCC[C@]3(C)C(=O)O)C,-3.8,5.2062,302.451
,C671,RTARBDNVQPTOHY-UHFFFAOYSA-N,O=C1NC(=O)NC(=O)C21CCCCCC2,-3.1700001,1.3506,210.23
,C2149,RTFARVWMEFHIKS-UHFFFAOYSA-N,CN1CCCC(C1)CC1c2ccccc2Sc2c1cccc2.Cl,-6.661040007,5.7549,345.929
,C2718,RTHCYVBBDHJXIQ-UHFFFAOYSA-N,CCCCOc1ccc(cc1C)CC(=O)N,-5.481064037,2.902,221.295
,C3400,RTKIYNMVFMVABJ-UHFFFAOYSA-L,FCCCCCCCCBr,-4.630798314,3.6914,211.115
,C4517,RTNXNRZZXYBWJZ-UHFFFAOYSA-N,CNCCC(c1ccccc1)Oc1ccc(cc1)C(F)(F)F,-3.710107537,4.8259,309.326
,C9170,RTVBHGWWCHKNOE-TYMHPWAKSA-N,CC[Hg]Sc1ccccc1C(=O)[O-].[Na+],0.091717699,1.5779,404.811
,C2658,RTZKZFJDLAIYFH-UHFFFAOYSA-N,CC(C(c1cccc2c1cccc2)(C(=O)N)CCN1CCCCC1)C,-5.562004282,4.7331,338.486
,C6477,RTZZCYNQPHTPPL-UHFFFAOYSA-N,OS(=O)(=O)O.Oc1ccc2c(c1)[C@]13CCCC[C@H]3[C@@H](C2)N(CC1)CCc1ccccn1,-2.429773686,4.4542,446.56
,C1551,RUAXWVDEYJEWRY-UHFFFAOYSA-N,CCOCC,-0.090000004,1.0428,74.1216
,C1369,RUBDHVDUWRMJGL-UHFFFAOYSA-L,Oc1cccc(c1)[N+](=O)[O-],-1.01,1.8236,139.109
,C7367,RUBFGAOTUOOEFZ-UHFFFAOYSA-N,Nc1ccc(cc1)c1ccc(cc1)N.Cl.Cl,-1.834435042,5.2844,257.159
,C9359,RUCMWNQXNTYTFC-LVEZLNDCSA-N,CC[N+](CC(OCC[N+](C)(C)C)C)(CC)C.[I-].[I-],0.313166279,-4.4079,486.215
,C5976,RUCYUEOPKJWVRX-UHFFFAOYSA-N,O1CCN(CC1)CCOC(c1ccccc1)c1ccccc1.Cl,-2.733978461,3.8647,333.852
,C2135,RUDATBOHQWOJDD-IOEPXXRMSA-N,CC(NC(=O)CN1CCN(CC1)CC1COC2(O1)c1ccccc1C=Cc1c2cccc1)C.OC(=O)/C=C/C(=O)O.OC(=O)/C=C/C(=O)O,-6.70522718,2.6194,679.714
,C5468,RUDQYVYWAGQGNG-UHFFFAOYSA-N,Cc1ccc(c(c1)Cl)C1(OC1Cl)C(=O)N,-3.05865023,2.6244,246.09
,C540,RUDUXQPKMFPBKF-UHFFFAOYSA-N,O[C@H]1CC[C@]2([C@H](C1)C[C@@H]([C@@H]1[C@@H]2CC[C@]2([C@H]1CC[C@@H]2[C@H](CCC(=O)O)C)C)O)C,-3.6400001,4.4779,392.572
,C8491,RUEYJJXJQYFCCU-UHFFFAOYSA-N,OCCNc1nc(N2CCN(CC2)C)c(c(n1)Cl)SC,-0.90341258,1.0838,317.838
,C2789,RUFPHBVGCFYCNW-UHFFFAOYSA-N,ClCCN(c1cc(ccc1C)C(=O)N1CCCCC1)CCCl,-5.380327633,3.843,343.291
,C2616,RUGYNGIMTAFTLP-UHFFFAOYSA-N,N#CC(c1cccc2c1cccc2)(CC[NH+](CC)C)CC=C(C)C.[Cl-],-5.626250327,0.88618,356.932
,C1100,RUHVDRGWCIAFLG-UHFFFAOYSA-N,Nc1cccc2c1cccc2,-1.92,3.0032,143.185
,C7016,RUKQAPJWMOAWKA-UHFFFAOYSA-N,Cc1nn(c(c1)C)c1nc2c([nH]1)cccc2,-2.081347308,2.3654,212.25
,C8483,RULKYXXCCZZKDZ-UHFFFAOYSA-N,CN(CCOc1ccccc1)C,-0.910608609,1.627,165.232
,C2919,RUMACXVDVNRZJZ-UHFFFAOYSA-N,CN(CCC12CC3CC(C2c2ccccc2)CC(C1)C3)C.Cl,-5.199685936,5.3502,319.912
,C676,RUMKATDUXZBMJB-UHFFFAOYSA-N,Clc1c(O)cc(c(c1Cl)Cl)Cl,-3.1500001,4.0058,231.891
,C7096,RUNZJJWOUSDDRH-UHFFFAOYSA-N,CC(COC(=O)C(=C)C)C,-2.038950136,1.7617,142.196
,C3651,RUOFYGLAOTYOFP-UHFFFAOYSA-N,CN1C2CCC1CN(C2)C(c1ccccc1Cl)c1ccccc1,-4.387267621,4.0836,326.863
,C3986,RUOPAUDVYRHXDB-UHFFFAOYSA-N,CCCCCCCCSCCCN1CCSC1.Cl,-4.115716338,5.2164,311.978
,C3728,RUVINXPYWBROJD-ONEGZZNKSA-N,OC(COc1c(ccc(c1C(=O)OC(C)C)C)C(C)C)CNC(C)C,-4.315460346,3.8122,351.48
,C6856,RUWKCARHAVFUFY-UHFFFAOYSA-L,OC(COc1cccc(c1C(=O)C)O)COc1cccc(c1C(=O)C)O,-2.172923623,2.3217,360.358
,C683,RVBJGSPBFIUTTR-UHFFFAOYSA-N,C/C=C/c1ccc(cc1)OC,-3.1300001,2.7283,148.202
,C4305,RVBRTNPNFYFDMZ-SPIKMXEPSA-N,CC[N+](CCOCC[N+](CC)(CC)CC)(CC)C.[Br-].[Br-],-3.868420247,-3.6261,420.267
,C6510,RVFUNJWWXKCWNS-UHFFFAOYSA-N,CCC(=O)c1ccc2c(c1)OCO2,-2.402686899,2.008,178.185
,C2042,RVGLUKRYMXEQAH-UHFFFAOYSA-N,OC(=O)/C=C\C(=O)O.OC(=O)/C=C\C(=O)O.CCSc1ccc2c(c1)N(CCCN1CCN(CC1)C)c1c(S2)cccc1,-7.03413857,4.4032,631.76
,C4584,RVIZCXZRYPJRIC-UHFFFAOYSA-N,CCN(CCNC(=O)c1cc(Cl)c(cc1OC)N)CC.Cl,-3.673581791,3.7765,336.257
,C8427,RVPYACGFEOZHMA-UHFFFAOYSA-M,CC1(C)COC1,-0.955626256,1.0428,86.1323
,C6039,RVSTWRHIGKXTLG-WCXIOVBPSA-N,N/C(=N\CCSCc1ccccc1)/CSS(=O)(=O)O,-2.690833542,3.5941,320.451
,C8923,RVVVMCHNTQXDPI-UHFFFAOYSA-N,Clc1cccc(c1)C(=O)Oc1cccc(c1)[N+](C)(C)C.[Br-],-0.343679316,0.7599,370.669
,C9425,RVWLHPJFOKUPNM-UHFFFAOYSA-N,O[C@@H]([C@H]([C@@H]([C@H](C(=O)O)O)O)O)COC(=O)C(N(C(C)C)C(C)C)N(C(C)C)C(C)C,0.359969997,-0.3785,436.54
,C1770,RWCCWEUUXYIKHB-UHFFFAOYSA-N,CC(c1cc(Cc2cc(cc(c2O)C(C)(C)C)C(C)C)c(c(c1)C(C)(C)C)O)C,-9.868394839,7.5304,396.605
,C17,RWEBLMZDYLQGAJ-UHFFFAOYSA-N,Clc1cccc(c1Cl)c1c(Cl)c(Cl)cc(c1Cl)Cl,-8.6000004,7.274,360.878
,C689,RWECDRYGVAHWOO-UHFFFAOYSA-N,O=C(c1ccccc1)c1ccccc1,-3.1199999,2.9176,182.218
,C3156,RWGFKTVRMDUZSP-UHFFFAOYSA-N,C[NH+](CCn1c2ccccc2c2c1cc(Cl)cc2)C.[Cl-],-4.916255984,-0.4036,309.234
,C4671,RWGUGNHDBXRLSD-UHFFFAOYSA-N,CCC(c1cccc2c1cccc2)(C(=O)N)CCN1CCOCC1,-3.625062409,3.3334,326.433
,C636,RWLALWYNXFYRGW-HTQZYQBOSA-N,CC(c1ccccc1)C,-3.27,2.81,120.192
,C5686,RWNKSTSCBHKHTB-UHFFFAOYSA-N,CCOC(=O)c1cc(=O)c2c(o1)ccc(c2)[N+](=O)[O-],-2.919234856,2.4011,263.203
,C1478,RWOCMBGJVOHSLJ-UHFFFAOYSA-N,CCC[C@H]([C@@H](CO)CC)O,-0.54000002,1.1659,146.227
,C250,RWOPZYIDUDXHIB-UHFFFAOYSA-N,ClC(=C(Cl)Cl)C(=C(Cl)Cl)Cl,-4.9099998,4.7574,260.761
,C3576,RWQNBRDOKXIBIV-UHFFFAOYSA-N,Fc1ccc(cc1)CC(=O)c1cc(C)c(c(c1)C(=O)O)O,-4.463731805,2.9633,288.27
,C5932,RWRDLPDLKQPQOW-UHFFFAOYSA-N,OC(=O)Cc1ccccc1C(=O)c1ccccc1,-2.763677516,2.5447,240.254
,C1231,RWSPMSBFOUJIRB-UHFFFAOYSA-M,Cc1c[nH]c(=O)[nH]c1=O,-1.52,-0.6284,126.113
,C1663,RWTWIZDKEIWLKQ-IWWMGODWSA-N,C1CCCN1,1.15,0.6986,71.121
,C6471,RWTWIZDKEIWLKQ-XCPWPWHNSA-N,CCCC1(CCC)OC(=O)[N-]C1=O.[Na+],-2.433306872,1.7064,207.202
,C6600,RWWBYAZXVYCRQA-UHFFFAOYSA-N,O[C@H]([C@H](C(=O)O)O)C(=O)O.Oc1ccc2c(c1)[C@]13CCCC[C@H]3[C@@H](C2)N(CC1)C,-2.345270366,0.8957,407.457
,C6601,RWXKUYSKUSXRGL-CLFYSBASSA-N,O[C@H]([C@H](C(=O)O)O)C(=O)O.Oc1ccc2c(c1)[C@@]13CCCC[C@@H]3[C@H](C2)N(CC1)C,-2.345270366,0.8957,407.457
,C3879,RWYQWCPUSSPSER-LVEZLNDCSA-N,OS(=O)(=O)SCCNCCCCCOc1nc2ccccc2c(c1)C(F)(F)F,-4.187104939,5.4,438.485
,C1608,RWZYAGGXGHYGMB-UHFFFAOYSA-N,CCN(C(=O)/C(=C/COP(=O)(OC)OC)/Cl)CC,0.51999998,2.395,299.688
,C2400,RXBKMJIPNDOHFR-UHFFFAOYSA-N,OC(=O)/C=C/C(=O)O.OC(=O)/C=C/C(=O)O.CCOC(=O)CN1CCN(CC1)CC1COC2(O1)c1ccccc1CCc1c2cccc1,-6.020408034,1.8818,668.688
,C1232,RXDALBZNGVATNY-CWLIKTDRSA-N,OC(=O)c1ccccc1N,-1.52,1.5482,137.136
,C9665,RXGPYPPCEXISOV-UHFFFAOYSA-N,OS(=O)(=O)O.NNCCc1ccccc1,0.630283322,2.2116,234.273
,C7516,RXKJFZQQPQGTFL-UHFFFAOYSA-N,N[C@H](c1ccccc1)C(=O)N[C@@H]1C(=O)N2[C@@H]1SC([C@@H]2C(=O)O)(C)C.O.O.O,-1.727382843,1.1543,403.451
,C5874,RXNYJUSEXLAVNQ-UHFFFAOYSA-N,CCCCCC(C(=O)O)CCC,-2.795925424,3.0676,172.265
,C9804,RXOIEVSUURELPG-UHFFFAOYSA-N,OCC(=O)CO,0.747121883,-1.4599,90.0779
,C5843,RXPBEGLIXKJVHJ-UHFFFAOYSA-N,O=C(c1ccc(cc1)O)c1ccc(cc1)O,-2.819913066,2.3288,214.217
,C8249,RXPRRQLKFXBCSJ-GIVPXCGWSA-N,CCNC1=NC(=O)C(O1)c1ccccc1,-1.13056562,1.0765,204.225
,C7417,RXPVDFOFHSWFKA-UHFFFAOYSA-N,CCCCNC(=O)Nc1ncco1,-1.805069648,2.0601,183.208
,C3230,RXQCGGRTAILOIN-UHFFFAOYSA-N,COC(=O)[C@@]1(O)C[C@]2(CC)CCCN3[C@@H]2c2n1c1ccccc1c2CC3,-4.834220309,2.8904,354.443
,C5183,RXTHKWVSXOIHJS-UHFFFAOYSA-N,O=C(C(Cl)Cl)Nc1ccccc1C(=O)C,-3.258508842,2.7044,246.09
,C7769,RXTQHQMDNHGEEW-UHFFFAOYSA-N,CNC(Cc1ccccc1)(C)C,-1.549472247,2.618,163.259
,C4550,RXUYADHAQWHONV-UHFFFAOYSA-N,CCC(=O)N(c1ccccc1)CC(N(CCc1ccccc1)C)C,-3.694400446,3.9926,324.46
,C2298,RXUYUUWQHGNNTA-UHFFFAOYSA-N,Brc1ccc(nc1)OCCNCCSSCCNCCOc1ccc(cn1)Br.Cl.Cl,-6.218568853,6.4058,625.269
,C3212,RXWNCPJZOCPEPQ-NVWDDTSBSA-N,CCCCOC(=O)N1C(OC)C=Cc2c1cccc2,-4.857267703,3.494,261.316
,C4719,RXYPXQSKLGGKOL-UHFFFAOYSA-N,OCC(C(=O)N1CC2CCC(C1)N2C)(c1ccccc1)c1ccccc1,-3.594276093,2.1458,350.454
,C4193,RXZUBOUSPZRJLZ-UHFFFAOYSA-N,OC[C@H]1O[C@H]([C@@H]([C@@H]1NC(=O)[C@H](Cc1ccc(cc1)OC)N)O)n1cnc2c1ncnc2N(C)C,-3.972275801,0.2975,471.51
,C9905,RYAPRJDMWXYXKI-UHFFFAOYSA-N,CN1CCN(CC1)C,0.942364321,-0.2606,114.189
,C2477,RYDOMJHOQPXWJQ-UHFFFAOYSA-N,C[NH+](CCOC(c1ccccc1)c1ccc(cc1)C1CCCCC1)C.[Cl-],-5.866967245,0.9888,373.959
,C6602,RYDYQFGNLBBCKP-XMMWENQYSA-N,COc1cc(Cc2cnc(nc2N)N)cc(c1C(=O)C)OC,-2.344400907,2.614,302.328
,C3421,RYFKPEIMYFQLOV-SMENAXLTSA-N,CC(CC1CCC(=CC1)C(C(=O)O)C)C,-4.60770702,3.4797,210.313
,C3095,RYFOJXFXERAMLS-UHFFFAOYSA-N,OC(=O)C(=O)[O-].CCOc1c(OC)cccc1C(=O)NCCO/[NH+]=C(/CC)\C,-4.993951035,-1.0814,398.408
,C3426,RYGZSUPPVFZSGX-UHFFFAOYSA-N,O[C@H]([C@H](C(=O)O)O)C(=O)O.Oc1ccc2c(c1)[C@]13CCCC[C@H]3[C@@H](C2)N(CC1)CCC(=O)c1ccccc1,-4.603382425,2.5389,525.59
,C7033,RYIGNEOBDRVTHA-UHFFFAOYSA-N,Cn1cccc1c1cccnc1,-2.065040325,2.0871,158.2
,C7662,RYKDNQPLJJHBBG-UHFFFAOYSA-M,CCOC(=O)C(=O)N1C2CCC1CN(C2)C,-1.61744585,-0.2697,226.272
,C7834,RYKUJAHSVIVAQV-UHFFFAOYSA-N,Clc1[nH]c2c(n1)n(C)c(=O)n(c2=O)C,-1.507522077,-0.3863,214.609
,C6391,RYMZZMVNJRMUDD-HGQWONQESA-N,CCCC1(CC)C(=O)NC(=S)N=C1[O-].[Na+],-2.485219897,1.191,236.266
,C6912,RYQOGSFEJBUZBX-UHFFFAOYSA-N,FCCCCCl,-2.14430913,1.9749,110.558
,C2005,RYROWNOHCUSOKT-UHFFFAOYSA-N,CCC(C(=O)O[C@H]1C[C@@H](C)C=C2[C@H]1[C@@H](CC[C@@H]1C[C@@H](O)CC(=O)O1)[C@H](C=C2)C)(C)C,-7.144651004,4.5856,418.566
,C2627,RYYVLZVUVIJVGH-UHFFFAOYSA-N,CN(CCCN1c2ccccc2C(c2c1cccc2)(C)C)C,-5.611365759,4.4807,294.434
,C1718,RZCHTMXTKQHYDT-UHFFFAOYSA-N,Brc1ccc(nc1)OCCCCCCCCCCNCCSSCCNCCCCCCCCCCOc1ccc(cn1)Br.Cl.Cl,-14.5490503,12.6474,849.694
,C1378,RZCJLMTXBMNRAD-UHFFFAOYSA-N,Cn1cnc2c1c(=O)n(C)c(=O)n2C,-0.97000003,-1.0293,194.191
,C9889,RZECAXAHGCQWGS-UHFFFAOYSA-N,OCCNC(=O)C(O)C,0.875668614,-1.1334,133.146
,C9123,RZELHTMTJHHEPE-UHFFFAOYSA-N,CC(Cc1ccc(cc1)O)N.Br,0.009033913,2.9403,232.118
,C5409,RZILCCPWPBTYDO-UHFFFAOYSA-N,CCC1CN(C)CCC1(OC(=O)C)c1ccccc1.Cl,-3.097381277,3.5466,297.82
,C2766,RZKSECIXORKHQS-SSDOTTSWSA-N,OC(=O)C(=O)[O-].Fc1ccc2c(c1)c1ccccc1n2CC[NH+]1CCCC1,-5.41566897,2.0024,372.39
,C589,RZKYEQDPDZUERB-UHFFFAOYSA-N,O=C(N(C)C)Nc1cccc(c1)C(F)(F)F,-3.4300001,2.8719,232.202
,C1249,RZOXEODOFNEZRS-UHFFFAOYSA-N,CCCC[C@@H](CC)O,-1.47,1.9475,116.201
,C428,RZPAKFUAFGMUPI-QESOVKLGSA-N,O=C(C(C)(C)C)C1C(=O)c2c(C1=O)cccc2,-4.1100001,2.297,230.259
,C5571,RZQROJIKNQDWGX-LVEZLNDCSA-N,C1CN=C(N1)Nc1cccc2c1CCCC2.Cl,-2.997862759,2.5759,251.755
,C3385,RZRPTBIGEANTGU-IRIMSJTPSA-N,CO[C@H]1C[C@H](O[C@@H]2[C@@H](C)C(=O)O[C@H](C)[C@H](C)[C@H](O)[C@H](C(=O)[C@@]3(C[C@@H]([C@@H]([C@H]2C)O[C@@H]2O[C@H](C)C[C@@H]([C@H]2O)N(C)C)C)CO3)C)O[C@H]([C@@H]1O)C,-4.646893296,1.9085,687.858
,C2551,RZTAMFZIAATZDJ-UHFFFAOYSA-N,OC(=O)/C=C/C(=O)O.OC(=O)/C=C/C(=O)O.CNC(=O)CN1CCN(CC1)CC1COC2(O1)c1ccccc1C=Cc1c2cccc1,-5.734845823,1.8408,651.66
,C577,RZVAJINKPMORJF-UHFFFAOYSA-N,O=C1CC[C@]2(C(=C1)CC[C@@H]1[C@@H]2C(=O)C[C@]2([C@H]1CCC2=O)C)C,-3.48,3.2664,300.392
,C3750,RZVHIXYEVGDQDX-UHFFFAOYSA-N,CCOC(=O)C1=C(C)NC(=C(C1c1cccc(c1Cl)Cl)C(=O)OC)C,-4.289930631,4.2931,384.254
,C1368,RZWRYPGAUIOOMK-UHFFFAOYSA-N,CC(=O)Nc1ccc(cc1)O,-1.03,1.4236,151.163
,C216,RZXMPPFPUUCRFN-UHFFFAOYSA-N,O=C1c2ccccc2C(=O)c2c1cccc2,-5.1900001,2.462,208.212
,C8189,RZYSYUCNZPOXMK-UHFFFAOYSA-N,O=Nc1ccc(c2c1cccn2)O,-1.199553237,2.3383,174.156
,C1328,RZZPDXZPRHQOCG-OJAKKHQRSA-N,Cc1ccc(cc1)N,-1.21,2.1584,107.153
,C5071,SAADBVWGJQAEFS-UHFFFAOYSA-N,COc1ccc(cc1)C(=C)C(=O)OC1CC2CCC(C1)N2C,-3.332995024,2.8147,301.38
,C9357,SAAYZFAHJFPOHZ-UHFFFAOYSA-N,O[C@@H]1[C@@H](COP(=O)(OP(=O)(OCC[N+](C)(C)C)[O-])O)O[C@H]([C@@H]1O)n1ccc(nc1=O)N,0.311289263,-0.5791,488.324
,C4249,SAFNJPRIKYBKQZ-UHFFFAOYSA-N,CCN(CCN1C(=O)CN=C(c2c1ccc(c2)Cl)c1ccccc1F)CC,-3.925942914,3.5055,387.878
,C7997,SAFVVFONEIASRF-UHFFFAOYSA-N,Nc1cccc2c1nccn2,-1.362452409,1.7932,145.161
,C5853,SANOUVWGPVYVAV-UHFFFAOYSA-N,NC1=NCC(O1)CN1CCN(CC1)c1ccc(cc1)Cl,-2.810347139,1.3143,294.78
,C6492,SAPAWHGNIMQFMR-UHFFFAOYSA-N,CN(CCN(c1ccccn1)Cc1ccsc1Cl)C.Cl,-2.417709617,4.1667,332.292
,C8514,SARMGXPVOFNNNG-UHFFFAOYSA-N,CC(CC(=O)N)C,-0.883073608,1.2181,101.147
,C6095,SATCULPHIDQDRE-UHFFFAOYSA-N,CC(=O)N1CCN2C(C1)CCc1c2cccc1,-2.660746696,1.6728,230.306
,C5163,SAXHIDRUJXPDOD-UHFFFAOYSA-N,CC(/N=C(/N=C(/Nc1ccc(cc1)Cl)\N)\N)C.Cl,-3.269560822,4.0653,290.192
,C1187,SAZOOWOGQNYJLS-UHFFFAOYSA-N,O=Cc1ccc2c(c1)OCO2,-1.63,1.2278,150.131
,C8056,SAZUGELZHZOXHB-UHFFFAOYSA-N,CCOC(=O)C(c1ccccc1)O,-1.312514892,1.2831,180.2
,C7067,SBAJRGRUGUQKAF-UHFFFAOYSA-N,OC(=O)c1cc(Cl)c(cc1O)O,-2.052740008,1.4494,188.565
,C5940,SBDHCUZETSWOAX-UHFFFAOYSA-N,CCC(C(=O)NC(=O)NC(=O)C)(CC)Br,-2.758997785,2.0942,279.131
,C9897,SBDNJUWAMKYJOX-UHFFFAOYSA-N,N#CCCNCCC#N,0.909533846,0.79426,123.156
,C1961,SBEQUPBZKBGVHE-UHFFFAOYSA-N,CCCCCc1cc(O)cc2c1C1C=C(C)CCC1C(O2)(C)C,-7.400667813,5.7358,314.462
,C4163,SBHXYTNGIZCORC-ZDUSSCGKSA-N,OC(=O)c1ccccc1Nc1c(Cl)ccc(c1Cl)C,-3.994386083,4.8166,296.149
,C2461,SBMSBQOMJGZBRY-UHFFFAOYSA-N,CCCCNCC(=O)N1C(C)(C)CC(=CC1(C)C)c1ccccc1,-5.895359092,4.578,328.492
,C545,SBNFWQZLDJGRLK-LEWJYISDSA-N,Oc1cc2O[C@@H](CC(=O)c2c(c1)O)c1ccc(c(c1)O)O,-3.6199999,2.2155,288.252
,C6874,SBNKFTQSBPKMBZ-UHFFFAOYSA-N,CCC(=O)c1ccc(c(c1)OC)OC,-2.164464669,2.2965,194.227
,C207,SBPBAQFWLVIOKP-UHFFFAOYSA-N,CC(=C[C@H]1[C@@H](C1(C)C)C(=O)OCc1cccc(c1)Oc1ccccc1)C,-5.2399998,5.7605,350.451
,C7757,SBPYEMSKGZSEGI-UHFFFAOYSA-N,CCOc1ccccc1C(=O)N,-1.563235078,1.8845,165.189
,C163,SBQYWGXLAKUAKB-UHFFFAOYSA-N,CCOP(=S)(Oc1nc(Cl)c(cc1Cl)Cl)OCC,-5.6700001,5.3687,350.586
,C7234,SBUJHOSQTJFQJX-NOAMYHISSA-N,CN1OCc2c(C1)cccc2,-1.93319917,1.5015,149.19
,C8516,SBUQZKJEOOQSBV-UHFFFAOYSA-N,[O-][N+](=O)c1ccc(nc1)OCCCNCCSS(=O)(=O)O,-0.881696286,2.8792,337.373
,C9367,SBWLAHWQJBFTFW-UHFFFAOYSA-N,OC[C@H]1O[C@H](O[C@H]2[C@H](N)C[C@@H]([C@H]([C@@H]2O)O[C@H]2O[C@H](CN)[C@H]([C@@H]([C@H]2O)O)O)N)[C@@H]([C@H]([C@@H]1O)N)O,0.314703538,-4.4902,484.499
,C8435,SBYAVOHNDJTVPA-UHFFFAOYSA-N,CNC(Cc1ccc(cc1)O)C,-0.949526675,1.9335,165.232
,C2918,SBYYYVAMWBVIIX-UHFFFAOYSA-N,CN(CCCC1CC(c2c1cccc2)(C)c1ccccc1)C.Cl,-5.202427754,5.6237,329.907
,C1020,SCAOIWGKQJYZBB-UHFFFAOYSA-N,CC(CNC(=O)N1CCNC1=O)C,-2.1500001,1.0348,185.224
,C7941,SCGDEDHSPCXGEC-UHFFFAOYSA-N,O=C1NC(=O)OC1c1ccccc1,-1.424237386,1.3229,177.157
,C4482,SCHFUNOUOHIHSX-UHFFFAOYSA-N,CCCCN1CCC(CC1)(OCC)c1ccccc1.Cl,-3.738423492,4.5542,297.863
,C5448,SCHKAKNJXBPJHD-HKJHEKHQSA-N,N#Cc1cc([N+](=O)[O-])c(c(c1)[N+](=O)[O-])Cl,-3.069294195,3.07448,227.561
,C4485,SCHKAKNJXBPJHD-SNQQVPMJSA-N,O=Nc1c(C)nn(c1C)c1ccccc1,-3.735488845,2.887,201.225
,C9240,SCJPIULIASRFNK-ODTJPNJJSA-N,NCCCC(CC(=O)NCCCC(CC(=O)NC1[C@@H](O[C@@H]([C@@H]([C@H]1O)OC(=O)N)CO)NC1=N[C@H]2[C@H](N1)[C@H](O)CNC2=O)N)N,0.200174428,-2.0729,630.694
,C9241,SCKFQSRDBBHBAR-UHFFFAOYSA-N,NCCC[C@@H](CC(=O)NCCC[C@@H](CC(=O)N[C@H]1[C@@H](O[C@@H]([C@@H]([C@H]1O)OC(=O)N)CO)NC1=N[C@H]2[C@H](N1)[C@H](O)CNC2=O)N)N,0.200174428,-2.0729,630.694
,C4956,SCLZRKVZRBKZCR-SLINCCQESA-M,ClCCN(C(=O)N[C@H]1[C@@H](OC(=O)C)O[C@@H]([C@H]([C@@H]1OC(=O)C)OC(=O)C)C)N=O,-3.416578012,0.849,423.803
,C5226,SCRFQUYFINSIFB-UHFFFAOYSA-L,N/C(=N\CC1CCCCCC1)/CSS(=O)(=O)O,-3.225063087,3.6311,280.407
,C3519,SCSHLMQESUQPEU-UHFFFAOYSA-N,[O-]C(=O)[C@@H]1N2C(=O)[C@H]([C@H]2SC1(C)C)NC(=O)c1c(C)onc1c1ccccc1Cl.[Na+],-4.517718843,1.5428,457.863
,C9479,SCULJPGYOQQXTK-OLRINKBESA-N,CC[N+](CCCCCCC[N+](CC)(C)C)(C)C.[Br-].[Br-],0.393323125,-2.8625,404.268
,C6269,SCVHFRLUNIOSGI-UHFFFAOYSA-N,CCC1CCC(N1C)c1c[nH]c2c1cccc2,-2.554440662,3.6511,228.333
,C4093,SCWKRWCUMCMVPW-UHFFFAOYSA-N,O[C@H]1CC[C@]2([C@@H](C1)CC[C@@H]1[C@@H]2CC[C@]2([C@]31O[C@@H]3[C@@H]([C@@H]2c1ccc(=O)oc1)OC(=O)C)C)C,-4.050468086,3.7999,442.545
,C6089,SCYNDZYCBJLQDA-UHFFFAOYSA-N,Cn1c2nc([nH]c2c(=O)n(c1=O)C)C1CCCC1,-2.664169956,0.6179,248.281
,C1143,SCYNFLAVUZUFTM-UHFFFAOYSA-N,CNC(=O)Oc1ccccc1,-1.8,1.7957,151.163
,C6136,SCYULBFZEHDVBN-UHFFFAOYSA-N,COC(=O)c1c(C)ccc(c1OCC(CN(C)C)O)C(C)C,-2.636830534,2.2063,309.401
,C5543,SDAIMQSEPQFQJY-UHFFFAOYSA-N,COc1nc2c(o1)ccc(c2)Cl,-3.015878121,2.4898,183.592
,C1304,SDDBCEWUYXVGCQ-UHFFFAOYSA-N,CC(Cl)Cl,-1.29,1.81,98.9592
,C2036,SDDCXRABBOAPJP-UHFFFAOYSA-N,BrCCN(c1ccc(cc1)OC(=O)c1ccc(cc1)[N+](=O)[O-])CCBr,-7.052888075,4.9334,472.128
,C277,SDJHPPZKZZWAKF-UHFFFAOYSA-N,Cc1cccc2c1cccc2C,-4.7399998,3.4566,156.224
,C4855,SDJZXAABVIWCNW-BNXVUDNTSA-N,c1ccc(cc1)CCNCC1CCc2c(N1)cccc2,-3.498657948,3.7745,266.381
,C922,SDKQRNRRDYRQKY-UHFFFAOYSA-N,CC(=C)C(=C)C,-2.4000001,2.1386,82.1436
,C2619,SDKUOEOJAXGCLU-UHFFFAOYSA-N,O[C@H]([C@H](C(=O)O)O)C(=O)O.CCC(CCN1CC[C@@]23[C@H]([C@H]1Cc1c3cc(cc1)O)CCCC2)CC,-5.623448098,3.0922,491.617
,C1212,SDNGTEVPTBGTKK-UHFFFAOYSA-N,CNC(=O)Oc1ccccc1C1OCCO1,-1.5700001,1.8411,223.225
,C5457,SDNODXJEIFDIKF-UHFFFAOYSA-N,OC(=O)c1ccc(c(c1)Cl)C,-3.064641326,2.3466,170.593
,C8393,SDOHGYUYKZFOOW-UHFFFAOYSA-N,CN(CCC(=O)c1ccc(cc1)C)C.Cl,-0.986356179,2.9314,227.73
,C6473,SDOJHDGZFOGOFD-UHFFFAOYSA-N,CCCCCNCCOC(=O)c1ccc(cc1)N.Cl,-2.432273267,3.9795,286.798
,C8159,SDQJTWBNWQABLE-UHFFFAOYSA-N,OCCCCCC/N=C(/CSS(=O)(=O)O)\N,-1.219758046,2.2134,270.37
,C82,SDQUZFKATDFLLP-UHFFFAOYSA-N,Cc1c2ccccc2c2c(c1C)c1ccccc1cc2,-7.0100002,5.763,256.341
,C5403,SDSIHESJXQVDJI-UHFFFAOYSA-N,O=c1[nH]c2ccccc2c(=O)[nH]1,-3.099321859,0.2164,162.145
,C8235,SDSMMBWQNDFCEX-UHFFFAOYSA-N,CCCC(COC(=O)N)COC(=O)N,-1.142793697,1.9939,204.224
,C3875,SDTRPYDQWXMFOM-UHFFFAOYSA-N,CCOC(=O)N1C(SC)C=Cc2c1cccc2,-4.189945177,3.4304,249.329
,C2063,SDXAWLJRERMRKF-UHFFFAOYSA-N,CN(CCCNc1nc(nc(n1)c1cccc(c1)C(Cl)(Cl)Cl)C(Cl)(Cl)Cl)C,-6.93995814,5.6286,492.058
,C4775,SDXUIOOHCIQXRP-UHFFFAOYSA-N,CN(CCOC(c1ccc(cc1)Cl)c1ccccc1)C.Cl,-3.560288813,4.8096,326.261
,C8629,SDYWXFYBZPNOFX-UHFFFAOYSA-N,Cc1[nH]nc(c1)C,-0.766442678,1.0265,96.1304
,C932,SEBFKMXJBCUCAI-HKTJVKLFSA-N,Fc1cc(F)c(cc1F)F,-2.3800001,2.243,150.074
,C646,SEBFSSWJENDFFN-VAWYXSNFSA-N,Nc1ccc(c(c1)Cl)Cl,-3.24,3.1568,162.017
,C4412,SECXISVLQFMRJM-UHFFFAOYSA-N,OC[C@H]1Oc2ccc(cc2O[C@@H]1c1ccc(c(c1)OC)O)[C@H]1Oc2cc(O)cc(c2C(=O)[C@@H]1O)O,-3.794703257,2.3627,482.436
,C4178,SEEPANYCNGTZFQ-UHFFFAOYSA-N,O=C(/C=C/c1ccccc1)OCCCN1CCCCC1C,-3.981370073,3.4454,287.397
,C1642,SEGLVYOGDQNDAS-UHFFFAOYSA-L,O=C1CCCN1C,1,0.1765,99.1311
,C573,SEGXVZIYBPMHEY-UHFFFAOYSA-N,Nc1ccc(cc1)S(=O)(=O)Nc1ncccn1,-3.51,2.5946,250.277
,C8724,SEHFUALWMUWDKS-UHFFFAOYSA-N,[S-]CC(=O)O[Hg]C.[Na+],-0.622500831,0.1221,328.715
,C6434,SEKQJFKGECWXEL-UHFFFAOYSA-N,CCOc1ccccc1N1CCN(CC1)CC1CN=C(O1)N,-2.453241317,1.0596,304.387
,C7511,SELFEGODBFAHGT-VOTSOKGWSA-N,O=c1[nH]c(=O)c(c([nH]1)C(=O)O)F,-1.730757853,-1.0995,174.087
,C6882,SENPVRDOTJDJJN-UHFFFAOYSA-N,COc1ccc2c(c1)c(C)cc(n2)OCCNCCSS(=O)(=O)O,-2.162832689,3.5279,372.46
,C8518,SEOVTRFCIGRIMH-UHFFFAOYSA-N,OCCN(C(=O)/C=C/c1ccccc1)CCO,-0.880228855,0.513,235.279
,C5085,SEQDDYPDSLOBDC-UHFFFAOYSA-N,Clc1cnc(c(c1)Cl)SCCCN1CSCC1.Cl,-3.32388695,4.6168,345.739
,C1048,SEQRDAAUNCRFIT-UHFFFAOYSA-N,OC(=O)Cc1c[nH]c2c1cccc2,-2.0699999,1.795,175.184
,C5172,SESFRYSPDFLNCH-UHFFFAOYSA-N,Clc1ccc2c(c1)C(=NC(C(=O)N2C)O)c1ccccc1,-3.26361513,1.9728,300.74
,C920,SEVKYLYIYIKRSW-UHFFFAOYSA-N,CCCC(Cl)Cl,-2.4000001,2.5902,127.012
,C3950,SEWMINUMBBPFPX-UHFFFAOYSA-N,O=C(c1ccccc1)OCc1ccccc1,-4.139604987,3.0436,212.244
,C8602,SEYCAKMZVYADRS-UHFFFAOYSA-N,CC(Cc1ccccc1)N.Cl,-0.787531316,3.0786,171.667
,C3056,SFKAGNBDQIEJKL-QKWMYHQSSA-N,COP(=S)(Oc1cc(C)c(c(c1)C)[N+](=O)[O-])OC,-5.03646729,4.2815,291.261
,C4175,SFLSHLFXELFNJZ-QMMMGPOBSA-N,CCCCc1cc2ccccc2c(n1)OCCN(C)C.Cl,-3.9873205,4.3198,308.846
,C4303,SFLZPZAKIKUJKP-UHFFFAOYSA-N,COc1ccc(cc1)CC(N1CC[C@@]23[C@H]([C@H]1Cc1c3cc(cc1)O)CCCC2)O.Cl,-3.872277482,4.7602,429.979