Name,Compound ID,InChIKey,SMILES,logS,logP,MW
,C9823,SFMSZTNDIWQOND-UHFFFAOYSA-L,NC[C@@H](c1ccc(c(c1)O)O)O,0.771651005,0.7902,169.178
,C5971,SFSQZPZBQINRSC-UHFFFAOYSA-N,CCOc1ccc(cc1)C(=O)OCCN(CC)CC.Cl,-2.735442081,3.3859,301.809
,C9404,SFTCFBSAPNETJJ-UHFFFAOYSA-N,CC[N+](CCSCC[N+](CC)(CC)CC)(CC)CC.[Br-].[Br-],0.346438261,-2.5194,450.359
,C6466,SFTUSTXGTCCSHX-UHFFFAOYSA-N,COCc1c(OC)cc(cc1OC)Cc1cnc(nc1N)N,-2.436098453,2.5578,304.344
,C6245,SFVFIFLLYFPGHH-UHFFFAOYSA-M,O=C1C(CCN1c1ccc(cc1)O)N1CCCCC1,-2.566731212,1.9863,260.332
,C93,SFVJZJHVCCHUGR-UHFFFAOYSA-N,Clc1ccc(c(c1)c1c(Cl)cccc1Cl)Cl,-6.8000002,5.9672,291.988
,C1973,SFWZXFCJOWQJFZ-KAIFKDDSSA-N,CCCCCCCCCCCCCCCCCC[N+](Cc1ccccc1)(C)C.[Cl-],-7.309042832,5.5285,424.146
,C7045,SGAJOYBPLOZFGE-UHFFFAOYSA-N,CCOC(=O)Oc1c(OC)cc(cc1OC)C(=O)N1CCOCC1,-2.060818146,1.6494,339.34
,C4798,SGDBTWWWUNNDEQ-LBPRGKRZSA-N,C=C[C@H]1CN2CC[C@H]1C[C@@H]2[C@H](c1ccnc2c1cc(OC)cc2)O.O.O,-3.539816522,2.9825,360.447
,C2226,SGDBTWWWUNNDEQ-UHFFFAOYSA-N,CCCCCCCCOc1ccccc1NC(=O)OCC[NH+]1CCCCC1.[Cl-],-6.408853449,2.6894,412.994
,C4375,SGDJEEPRBXBRJK-BWLGBDCWSA-N,ClCCN(c1ccc(cc1)C[C@@H](C(=O)O)N)CCCl,-3.824857025,2.6253,305.2
,C4376,SGEJQUSYQTVSIU-UHFFFAOYSA-N,ClCCN(c1ccc(cc1)CC(C(=O)O)N)CCCl,-3.82466692,2.6253,305.2
,C3105,SGHXFFAHXTZRQM-SPIKMXEPSA-N,Fc1ccc(cc1)/C(=N\N=C(N)N)/c1ccc(cc1)C(F)(F)F.Cl,-4.985486673,5.0729,360.737
,C617,SGKGVABHDAQAJO-UHFFFAOYSA-N,CCCCN(C(=O)SCCC)CC,-3.3499999,3.3716,203.345
,C3412,SGKRLCUYIXIAHR-AKNGSSGZSA-N,CN1CCC(=C2c3ccccc3CCc3c2nccc3)CC1.OC(=O)/C=C\C(=O)O.OC(=O)/C=C\C(=O)O,-4.617760648,3.0692,522.546
,C3370,SGLGUTWNGVJXPP-UHFFFAOYSA-N,N#Cc1cc(I)c(c(c1)[N+](=O)[O-])O,-4.660538236,2.29988,290.015
,C5806,SGMAKYJPZQNTQS-DUXPYHPUSA-N,CN([C@@H]1C(=O)C(=C([C@@]2([C@H]1[C@@H](O)[C@@H]1[C@@H](C)c3cccc(c3C(=C1C2=O)O)O)O)O)C(=O)N)C,-2.848472589,0.1961,444.435
,C8258,SGROXKJKWRIASN-UHDJGPCESA-N,N#Cc1cc(C#N)cc(c1)C#N,-1.124402146,1.30164,153.14
,C5458,SGTNSNPWRIOYBX-UHFFFAOYSA-N,CN1CC2CC1N(CC2)C(=O)/C=C/c1ccc(s1)[N+](=O)[O-],-3.064412791,2.5786,307.368
,C9686,SGUAFYQXFOLMHL-UHFFFAOYSA-N,[O-]C(=O)C(O)C.O=[NH+]/C=c/1\ccccn1C,0.645445984,-2.9917,226.229
,C3084,SGXXNSQHWDMGGP-IZZDOVSWSA-N,COc1ccc(cc1OC)CCN(CCCC(c1ccc(c(c1)OC)OC)(C(C)C)C#N)C,-5.007235261,5.09308,454.602
,C4906,SGZRQMALQBXAIQ-UHFFFAOYSA-N,CC(CCc1ccccc1)NCC(c1ccc(c(c1)C(=O)N)O)O,-3.448233143,3.2266,328.405
,C8762,SHAYBENGXDALFF-UHFFFAOYSA-N,CN/C(=C\[N+](=O)[O-])/NCCSCc1csc(n1)CN(C)C,-0.566034704,2.6275,331.457
,C8416,SHAYUWBGXZREDN-UHFFFAOYSA-N,CC(Cc1ccc(cc1)O)NCC(c1cc(O)cc(c1)O)O.Br,-0.967636128,3.4066,384.265
,C4283,SHCLHGQKJMOYER-UHFFFAOYSA-M,CNCCC=C1c2ccccc2CCc2c1cccc2.Cl,-3.892561256,5.0193,299.838
,C3279,SHGAZHPCJJPHSC-XFYACQKRSA-N,CCC(=O)N1C2CCC1CN(C2)C(c1ccccc1)c1ccccc1,-4.7609201,3.737,334.455
,C9611,SHGAZHPCJJPHSC-YCNIQYBTSA-N,CCOCC[N+](C)(C)C.[I-],0.586480612,-2.2669,259.128
,C2238,SHHKQEUPHAENFK-UHFFFAOYSA-N,C/C(=C\C=C\C(=C/C(=O)O)\C)/C=C/C1=C(C)CCCC1(C)C,-6.377390085,5.6026,300.435
,C2240,SHIBSTMRCDJXLN-KCZCNTNESA-N,C/C(=C\C=C\C(=C\C(=O)O)\C)/C=C/C1=C(C)CCCC1(C)C,-6.376357279,5.6026,300.435
,C7535,SHLGUEVDTGWLBS-UHFFFAOYSA-N,COC(C1=C(N2CC2)C(=O)C(=C(C1=O)N1CC1)C)COC(=O)N,-1.717233648,-0.0161,321.328
,C5582,SHNJNXNMYKGBGP-UHFFFAOYSA-N,O[C@H]1CC[C@]2([C@@H](C1)CC[C@@H]1[C@@H]2C[C@@H](O)[C@]2([C@]1(O)CC[C@@H]2C1=CC(=O)OC1)C)C,-2.986446002,2.5751,390.513
,C7072,SHNUBALDGXWUJI-UHFFFAOYSA-N,CCCOc1ccccc1OCC(CO)O,-2.051434758,1.2074,226.269
,C8170,SHOWAGCIRTUYNA-UHFFFAOYSA-N,OC(Cc1ccccc1)CNC(C)C,-1.214327356,1.9789,193.285
,C9913,SHPIBZXFYWMQBR-UHFFFAOYSA-M,OCc1ccccn1,0.962063804,0.5739,109.126
,C8535,SHRQNPQSYFSSIN-UHFFFAOYSA-N,COc1cc2CNCCc2cc1OC.Cl,-0.867013945,2.4803,229.703
,C8453,SHTAFWKOISOCBI-UHFFFAOYSA-N,O=C(C(c1cccs1)(c1ccccc1)O)OC1CC[N+](C1)(C)C.[Br-],-0.937741879,-0.6613,412.341
,C5338,SHVCSCWHWMSGTE-UHFFFAOYSA-N,CCCCOc1ccc(cc1OC)C=CC(=O)NO,-3.140450738,2.7836,265.305
,C2143,SHZIWNPUGXLXDT-UHFFFAOYSA-N,CCOC(=O)C1(CCN(CC1)CCC(c1ccccc1)(c1ccccc1)C#N)c1ccccc1.Cl,-6.676521367,6.22318,489.048
,C1313,SHZWWHZISZGGHB-UHFFFAOYSA-N,Cc1cc(=O)[nH]c(=O)[nH]1,-1.26,-0.6284,126.113
,C968,SIBFQOUHOCRXDL-UHFFFAOYSA-N,CCCCCC(=O)OCC,-2.3099999,2.1298,144.211
,C5038,SIDLZWOQUZRBRU-UHFFFAOYSA-N,CCCCCCc1[nH]c2c(n1)n(C)c(=O)n(c2=O)C,-3.35768684,1.0831,264.323
,C9136,SIEFLIMNPRLFJI-UHFFFAOYSA-M,OCC(CBr)O,0.04268963,-0.2655,154.99
,C8181,SIEYLFHKZGLBNX-NTISSMGPSA-N,CCC1(CC)C(=O)NCC(C1=O)C,-1.20424089,1.4566,183.247
,C8966,SIEYLFHKZGLBNX-PKLMIRHRSA-N,Cn1c(=O)n(C)c2c(c1=O)[nH]cn2.[Hg]CC(CN(C(=O)c1ccccc1OC)C(=O)[O-])OC.[Na+].O,-0.264103461,-0.6432,687.021
,C3776,SIEYLFHKZGLBNX-UHFFFAOYSA-N,CCCCN1CCCC[C@H]1C(=O)Nc1c(C)cccc1C.Cl,-4.268702319,4.7094,324.889
,C3775,SIEYZYONZYIIJH-AGSMNRHJSA-N,CCCCN1CCCC[C@@H]1C(=O)Nc1c(C)cccc1C.Cl,-4.268702319,4.7094,324.889
,C3774,SIGZQNJITOWQEF-VICXVTCVSA-M,CCCCN1CCCCC1C(=O)Nc1c(C)cccc1C.Cl,-4.268702319,4.7094,324.889
,C2633,SIJUHDYJDHLNLY-UHFFFAOYSA-N,CC[C@H]1CN2CC[C@H]1C[C@H]2[C@@H](c1ccnc2c1cc(OCCC(C)C)cc2)O.Cl.Cl,-5.601549195,6.3554,455.461
,C2963,SIKHOOLXYFPALG-UHFFFAOYSA-N,[O-]C(=O)[C@@H]1N2C(=O)[C@H]([C@H]2SC1(C)C)NC(=O)c1c(C)onc1c1c(Cl)cccc1Cl.[Na+].O,-5.147934254,2.1319,510.323
,C5482,SIKJAQJRHWYJAI-UHFFFAOYSA-N,FCCN(C(=O)NC1CCCCC1)N=O,-3.049146061,2.3725,217.241
,C8012,SILNNFMWIMZVEQ-UHFFFAOYSA-N,O=C(C1NCCNC1)Nc1c(C)cccc1C.Cl.Cl,-1.346170052,3.1379,306.231
,C1230,SIPXVTDBUYGIKR-UHFFFAOYSA-N,c1ccc2c(c1)[nH]cc2,-1.52,2.1679,117.148
,C8244,SIQPXVQCUCHWDI-UHFFFAOYSA-N,O=c1[nH]c2c([nH]1)cccc2,-1.136990997,0.8562,134.135
,C3264,SISNUVGPTCCAFS-UHFFFAOYSA-N,COc1ccc2c(c1)CCN(C2CCc1ccc(cc1)[N+](=O)[O-])C,-4.782962552,4.2263,326.39
,C6804,SIUIZWIFPPQMHB-UHFFFAOYSA-N,CCCn1c(=O)[nH]c(=O)c2c1nc[nH]2,-2.209416624,-0.1771,194.191
,C2242,SIULLDWIXYYVCU-UHFFFAOYSA-N,OC(=O)C(=O)O.CCN(CC1COC2(O1)c1cc(Cl)ccc1OCc1c2cccc1)CC,-6.371968454,3.3463,463.908
,C5375,SIXLXDIJGIWWFU-UHFFFAOYSA-N,CCC(COC(=O)N)(COC(=O)NC(C)C)CC,-3.112334851,3.1139,260.33
,C644,SIZDUQQDBXJXLQ-UHFFFAOYSA-N,CC(=O)Nc1ccc(cc1)I,-3.25,2.3226,261.06
,C4405,SIZKTOWSJXBSSB-UHFFFAOYSA-N,OCc1c(CSSCc2cnc(c(c2CO)O)C)cnc(c1O)C,-3.801623703,2.5708,368.471
,C8752,SIZQOZWQHVSXMC-UHFFFAOYSA-N,OC(=O)CC1CC(C1(C)C)C(=O)C,-0.575176059,1.7124,184.232
,C5261,SIZXNBZGPPPFHM-UHFFFAOYSA-L,CCCCCC(COC(=O)N)(COC(=O)N)CC,-3.19542282,3.5543,260.33
,C2558,SJCRQMUYEQHNTC-UHFFFAOYSA-N,COC1(CCC(CC1)NCCCC(=O)c1ccc(cc1)F)c1ccc(cc1)F.Cl,-5.724203129,6.1947,423.924
,C1800,SJDACOMXKWHBOW-UHFFFAOYSA-N,O=C(Nc1c(I)cc(c(c1I)C(=O)[O-])I)CCCCC(=O)Nc1c(I)cc(c(c1I)C(=O)[O-])I.[Na+].[Na+],-9.219554443,4.3248,1183.73
,C4171,SJDCEXAILSGDEQ-SQQVDAMQSA-M,OC(=O)Cc1cc(n(c1C)c1ccc(cc1)Cl)C,-3.988816938,3.3746,263.719
,C4371,SJFPWBFXBOZGTB-ONEGZZNKSA-N,Oc1ccc(cc1)C1(c2ccc(cc2)O)C(=O)Nc2c1cccc2,-3.827588279,3.5223,317.338
,C3800,SJGNTKAHLOBSEZ-UHFFFAOYSA-N,C/C=C/CC(c1cccc2c1cccc2)C(=O)[O-].[Na+],-4.251454464,2.6395,262.279
,C7849,SJIIDWBFRZACDQ-UHFFFAOYSA-N,NC(=O)/C=C/C1=NCCC1,-1.493030787,0.3986,138.167
,C4547,SJLKYVVYUNFNBO-UHFFFAOYSA-N,CCCCC(COC(=O)N)(COC(=O)NCC)CC,-3.696383284,3.5056,274.357
,C9158,SJMYWORNLPSJQO-UHFFFAOYSA-N,SCc1ccccn1,0.078525089,1.5114,125.191
,C7684,SJNIEBAPMPLYAB-UHFFFAOYSA-N,CCC(c1cnccn1)C(=S)N,-1.607016774,1.9566,181.258
,C6900,SJNWVWZUCJZLGK-UHFFFAOYSA-N,CC(=C)C(=O)OC(C)(C)C,-2.152893488,1.9042,142.196
,C190,SJORMDVXATZFFN-UHFFFAOYSA-N,CCOP(=S)(Oc1ccc2c(c1)c(C)c(c(=O)o2)Cl)OCC,-5.3800001,5.0817,362.766
,C8261,SJRACCTZSAUMGO-WIMVFMHDSA-N,OCC(COc1ccccc1F)O,-1.123809679,0.5577,186.18
,C5192,SJRJJKPEHAURKC-UHFFFAOYSA-N,OC(=O)C(=O)[O-].CCC1Oc2ccc(cc2N(C1=O)CC([NH+](C)C)C)Cl,-3.249062543,-0.7371,386.827
,C7689,SJRYSBPDUOVODQ-UHFFFAOYSA-N,OC[C@H]1O[C@@H](OCc2cc(=O)c3c(o2)cc2c(c3OC)cco2)[C@@H]([C@H]([C@@H]1O)O)O,-1.6045761,-0.1357,408.356
,C1643,SJTMUPFIWQTRER-UHFFFAOYSA-N,CN1CCOCC1,1,-0.1137,101.147
,C1807,SJWFXCIHNDVPSH-MRVPVSSYSA-N,COc1ccc(cc1)C(=Cc1ccc(cc1)C(=N)N)c1ccc(cc1)OC.Cl,-8.967076424,6.1788,394.894
,C5724,SJWOWLRNQZLLKL-GYVLLFFHSA-N,N/C(=N\Cc1ccc(c(c1)C)C)/CSS(=O)(=O)O,-2.898863754,3.4777,288.386
,C1041,SKAADKSETAYKGL-UHFFFAOYSA-N,CCCCCC[C@H](O)C,-2.0899999,2.3376,130.228
,C7113,SKALQPVVCXEHKD-UHFFFAOYSA-N,O=C(c1ccc(cc1)Cl)/C=N/N1CC[NH+](CC1)C.[Cl-],-2.030043929,-1.1501,302.2
,C8708,SKEVFVQMAFMKEM-DYNGLPSQSA-N,CN(c1ccccc1)C(=O)N,-0.65600047,1.9018,150.178
,C4181,SKGACPGKMWWAIG-RMKNXTFCSA-N,Cc1ccc(cc1)SCCNc1ccccc1C(=O)N,-3.978395918,4.0714,286.392
,C1726,SKHIBNDAFWIOPB-UHFFFAOYSA-N,CCCCCCCOc1ccc(c2c1cccc2)C(=N)[NH+](CCCCCCC)CCCCCCC.[Cl-],-12.5769707,5.4438,517.229
,C7063,SKIVFJLNDNKQPD-UHFFFAOYSA-N,N#C/C(=C\c1ccccc1)/C(=O)N,-2.054728588,1.77918,172.183
,C9846,SKKLFJHESZIVKT-UHFFFAOYSA-N,NCCc1ccccc1.Cl,0.802330791,2.6901,157.641
,C1322,SKKTUOZKZKCGTB-UHFFFAOYSA-N,CC(=O)NS(=O)(=O)c1ccc(cc1)N,-1.23,2.1465,214.242
,C8137,SKLUWKYNZNXSLX-UHFFFAOYSA-N,N1CCNCC1.OC(=O)Cn1cnc2c1c(=O)n(C)c(=O)n2C,-1.239160245,-1.6449,324.336
,C1459,SKLZCRNUJKGGRW-UHFFFAOYSA-N,CCCCOC(=O)N,-0.66000003,1.5821,117.146
,C1210,SKPLBLUECSEIFO-UHFFFAOYSA-N,O=Cc1ccc(cc1)NC(=O)C,-1.58,1.5305,163.173
,C3068,SKRGPEBZTXSTCT-UHFFFAOYSA-N,Cc1cccc2c1nc1ccccc1c2,-5.02129941,3.6964,193.244
,C7889,SKTJISGGWXVVBE-UHFFFAOYSA-N,OC(COC(=O)N)COc1ccc(cc1)Cl,-1.463167705,1.8753,245.66
,C8425,SKVLYVHULOWXTD-UHFFFAOYSA-N,CNCC(c1cccc(c1)OC(=O)C)OC(=O)C,-0.956116584,1.8264,251.278
,C6399,SKZKKFZAGNVIMN-UHFFFAOYSA-N,CCOc1ccc(cc1)N/C(=N/c1ccc(cc1)OCC)/N,-2.476214066,4.3156,299.368
,C5381,SLACVLUCWZYDAK-UHFFFAOYSA-N,O=C(Nc1ccc(cc1)S(=O)(=O)Nc1nccs1)CCC(=O)O,-3.109944949,2.974,355.389
,C1152,SLANUBHZICPYRW-UHFFFAOYSA-M,NC(=O)c1ccccc1O,-1.76,1.1914,137.136
,C3355,SLARELGEGUUVPI-UHFFFAOYSA-N,COc1ccc2c(c1CN(C)C)oc(c(c2=O)C)c1ccc(cc1)Cl,-4.673439839,4.492,357.831
,C8873,SLFGIOIONGJGRT-UHFFFAOYSA-N,COc1ccc(cc1CC[N+](C)(C)C)OC.[Cl-],-0.414595665,-1.0435,259.772
,C4860,SLFSSUKLMIHWLW-UHFFFAOYSA-N,CCCOc1ccc(cc1)C(=O)CCN1CCCCC1.Cl,-3.495686424,4.274,311.847
,C2524,SLGBZMMZGDRARJ-UHFFFAOYSA-N,N#Cc1ccc2c(c1)N(CC(CN(C)C)C)c1c(S2)cccc1,-5.790155227,4.42368,323.455
,C4298,SLHZPGCWJXXMAR-UHFFFAOYSA-N,CN1CCCC1c1c[nH]c2c1cc(OCc1ccccc1)cc2,-3.874578209,4.4515,306.401
,C96,SLJDAVMWFVYEFI-LPOUJYBBSA-N,c1ccc2c(c1)c1ccccc1c1c2cccc1,-6.7399998,5.1462,228.288
,C4741,SLKLQAMVBKKGMQ-UHFFFAOYSA-N,[O-][N+](=O)c1ccc(s1)c1scc(n1)CN1CCCCC1.Cl,-3.579381948,5.0288,345.868
,C1122,SLKWSZYSOUHYME-UHFFFAOYSA-N,COc1ccc2c(c1O)[C@@]13CCN([C@H](C2)[C@H]3C=CC(=O)C1)C,-1.87,1.9819,299.364
,C2075,SLLVSPMAIZWWJN-WLHGVMLRSA-N,C=CCc1cc(cc(c1O)CN(CC)CC)c1cc(CC=C)c(c(c1)CN(CC)CC)O.Cl.Cl,-6.885678391,7.5094,509.551
,C8443,SLRCCWJSBJZJBV-BYNSBNAKSA-N,CCOC(=O)N1CCNCC1.Cl,-0.944882214,1.1168,194.659
,C2710,SLYWZSGKTGNBOI-UHFFFAOYSA-N,C1CCN(C1)CC1COC2(O1)c1ccccc1OCc1c2cccc1.OC(=O)/C=C/C(=O)O,-5.49520067,2.941,453.484
,C1114,SLZWBCGZQRRUNG-UHFFFAOYSA-N,C1CC[C@H]2N(C1)C[C@@H]1C[C@H]2CN2[C@@H]1CCCC2,-1.89,2.2209,234.38
,C5829,SMANXXCATUTDDT-QPJJXVBHSA-N,CCN1CCCC(C1)OC(=O)Nc1ccc(cc1)C(=O)C,-2.830483998,2.9329,290.357
,C391,SMDHCQAYESWHAE-UHFFFAOYSA-N,CNC(=O)Oc1cc(cc(c1)C(C)(C)C)C(C)(C)C,-4.2399998,4.3907,263.375
,C2371,SMMIJKYSLDYXRR-UHFFFAOYSA-N,Fc1ccc(cc1)C(c1ccc(cc1)F)N1CCN(CC1)C/C=C/c1ccccc1,-6.076980493,5.261,404.495
,C176,SMMNJQNEWMPPDF-UHFFFAOYSA-N,CCCCN(c1c(cc(cc1[N+](=O)[O-])C(F)(F)F)[N+](=O)[O-])CC,-5.5300002,5.1946,335.279
,C4213,SMNDYUVBFMFKNZ-UHFFFAOYSA-N,OC(=O)C(=O)O.CNCCCC1(OC(c2c1cccc2)C)c1ccccc1,-3.952880157,3.5675,371.427
,C6915,SMNFXAFXLXHKSF-UHFFFAOYSA-N,CN1CCCC1c1c[nH]c2c1cc(C)cc2,-2.143525768,3.1809,214.306
,C1487,SMNOERSLNYGGOU-UHFFFAOYSA-N,OC(=O)c1ccco1,-0.47999999,0.9778,112.083
,C7892,SMPOXMYVWIXCMT-UHFFFAOYSA-N,FCCN(C(=O)NCCCl)N=O,-1.462371602,1.2786,197.595
,C3688,SMPZPKRDRQOOHT-UHFFFAOYSA-N,Clc1ccc(cc1S(=O)(=O)N)S(=O)(=O)N(CC1(C)CCCO1)C,-4.357488151,4.0389,382.883
,C2666,SMQUZDBALVYZAC-UHFFFAOYSA-N,COc1c(O)ccc2c1N(CCCN(C)C)c1c(S2)ccc(c1)Cl,-5.549322356,4.6736,364.89
,C2526,SMWDFEZZVXVKRB-UHFFFAOYSA-N,COc1cc2OC(C)(C)C=Cc2c2c1c(=O)c1c(n2C)cccc1,-5.78784796,3.8845,321.37
,C1404,SMXDRKKGVLJUFQ-UHFFFAOYSA-N,O=Cc1ccccc1O,-0.86000001,1.2047,122.121
,C1298,SMYMJHWAQXWPDB-UHFFFAOYSA-N,c1ccc2c(c1)nccc2,-1.3,2.2348,129.159
,C4820,SMZNXSCEYVZLSZ-UHFFFAOYSA-M,Nc1oc2c(n1)cc(c(c2)Cl)Br,-3.527837028,3.4071,247.476
,C732,SNESGMZASZVGNN-UHFFFAOYSA-M,OC(=O)COc1cc(Cl)c(cc1Cl)Cl,-2.96,3.1102,255.483
,C9797,SNEUTJSIVTXGAK-JVFQMWRPSA-N,CCOC(C[N+](C)(C)C)C.[Cl-],0.740635536,-1.8784,181.703
,C9653,SNFZSVZRZFZVIV-UHFFFAOYSA-N,COc1cc2C=[N+](C)CCc2cc1OC.[Cl-],0.616696398,-1.7161,241.714
,C4646,SNHMUERNLJLMHN-UHFFFAOYSA-N,CCN(CCN1CC[C@@]23[C@H]([C@H]1Cc1c3cc(cc1)O)CCCC2)CC.Cl,-3.643114744,4.5323,378.979
,C5309,SNHRLVCMMWUAJD-NQMRGXSRSA-N,CCOC(=O)c1c(C)ccc(c1OCC(CN(C)C)O)C(C)C,-3.157601824,2.5964,323.427
,C780,SNICXCGAKADSCV-SNVBAGLBSA-N,Ic1ccccc1,-2.78,2.2912,204.008
,C284,SNIOPGDIGTZGOP-UHFFFAOYSA-N,CCCCC(=O)O[C@]1([C@H](C)C[C@@H]2[C@]1(C)C[C@@H](O)[C@]1([C@H]2CCC2=CC(=O)C=C[C@]12C)F)C(=O)CO,-4.71,3.6368,476.577
,C1629,SNJDSTGQYRTZJT-UHFFFAOYSA-N,CN1CCC[C@@H]1c1cccnc1,0.79000002,1.7862,162.232
,C996,SNKLPZOJLXDZCW-UHFFFAOYSA-N,[O-][N+](=O)OC(CO[N+](=O)[O-])CO[N+](=O)[O-],-2.22,0.5495,227.087
,C5150,SNMPZGYSPHLFLT-UHFFFAOYSA-N,CC(c1ccc(cc1)Cl)(CC(O)(C)C)O,-3.277949239,2.7085,228.715
,C5247,SNMVRZFUUCLYTO-UHFFFAOYSA-N,Oc1ccc(cc1C)C(C)(C)C,-3.209890645,2.9981,164.244
,C4479,SNNIGNLXYVEYOC-UHFFFAOYSA-N,CC(OOC1(CCc2ccccc2)C(=O)NC(=O)NC1=O)(C)C,-3.742189956,2.1283,320.34
,C1246,SNPLKNRPJHDVJA-UHFFFAOYSA-N,CCCCl,-1.47,1.6352,78.5407
,C4967,SNPLKNRPJHDVJA-ZETCQYMHSA-N,[O-][N+](=O)c1ccc(s1)c1scc(n1)C(=O)O,-3.4043425,3.0012,256.258
,C9742,SNPQRYOQWLOTFA-UHFFFAOYSA-N,OCCCNC(=O)C(C(CO)(C)C)O,0.687708371,-0.7447,205.251
,C9741,SNTQPLDRUZOSDP-UHFFFAOYSA-N,OCCCNC(=O)[C@@H](C(CO)(C)C)O,0.687708371,-0.7447,205.251
,C8992,SNTRNYFGXUVYFR-UHFFFAOYSA-L,CC1(C)NCCS1,-0.225731888,1.3877,117.213
,C2542,SNUBBWAURMSPJZ-UHFFFAOYSA-N,CCCC(c1ccccc1)(c1ccccc1)C(=O)OCCN(CC)CC,-5.748367442,4.6578,353.498
,C9308,SNUOZYUMIBOGNS-UHFFFAOYSA-N,O=C(C1CC2CC[N+]1(C)CC2)OCC([N+](C)(C)C)C.[I-].[I-],0.280481435,-4.78,524.22
,C2622,SNYIPZNSOUVGTP-UHFFFAOYSA-N,CCN(C(=O)OCC(COC(=O)N(CC)CC)(CC)CC)CC,-5.62205371,3.7496,330.463
,C2498,SNZADUDEPOWBBM-UHFFFAOYSA-N,CN(CCN1c2ccccc2N=C(c2c1ccc(c2)Cl)c1ccccc1)C,-5.841875049,5.0228,375.894
,C2783,SOBYBGYFETUFEY-UHFFFAOYSA-N,CCN1CCc2c(C1CCc1ccc(cc1)Cl)cc(c(c2)OC)OC,-5.388857284,4.847,359.89
,C3113,SODPIMGUZLOIPE-UHFFFAOYSA-N,CC(NCCCC12CC3CC(C2)CC(C1)C3)(C)C.Cl,-4.964852446,5.564,285.896
,C6785,SOELXOBIIIBLRJ-UHFFFAOYSA-M,OCCOc1ccc(cc1C(=O)NC)Br,-2.225743629,1.5707,274.111
,C973,SOGAXMICEFXMKE-UHFFFAOYSA-N,OC(=O)COc1ccc(cc1)Cl,-2.29,1.8034,186.592
,C9578,SOICWIOBKAGQQJ-UHFFFAOYSA-N,[O-]c1n(C)c(=O)n(c2c1ncn2)C.OCC[N+](C)(C)C,0.547704373,-0.5043,283.327
,C6745,SONNWYBIRXJNDC-UHFFFAOYSA-N,CCCCOC(=O)C(=C)C,-2.249803501,1.9058,142.196
,C4442,SONNWYBIRXJNDC-VIFPVBQESA-N,CC[NH+](CCN1C(=O)C(CC)Oc2c1cc(Cl)cc2)CC.[Cl-],-3.766893328,-1.1623,347.28
,C9829,SOOXXPIIPHUERK-UHFFFAOYSA-N,CNCC(c1cccc(c1)O)O,0.776742974,1.0359,167.205
,C9827,SOQHBMQZZHEBPB-UHFFFAOYSA-N,CNC[C@@H](c1cccc(c1)O)O,0.776742974,1.0359,167.205
,C4018,SOWYPVBHAZDFPZ-UHFFFAOYSA-N,CC(c1[nH]c2c(c1C(=O)c1cccnc1)cccc2)C,-4.097860715,3.9173,264.322
,C4095,SOYVHSZVPQHVOP-UHFFFAOYSA-N,COC(=O)c1ccccc1OCC(CN1CCN(CC1)c1ccc(c(c1)C)C)O.Cl.Cl,-4.048094641,4.2588,471.417
,C3200,SPANOECCGNXGNR-UITAMQMPSA-N,OC(=O)C(Cc1c(C)n(c2c1cccc2)Cc1ccccc1)N,-4.869994296,3.6527,308.374
,C5753,SPCIYGNTAMCTRO-UHFFFAOYSA-N,CC(C(=O)c1ccccc1)CN1CCCCC1,-2.877676703,2.9292,231.333
,C437,SPEPGZNZGOJPCA-HPJBNNNXSA-N,Cl/C=C(/CSC(=O)N(C(C)C)C(C)C)\Cl,-4.0799999,4.2774,270.219
,C8467,SPFYMRJSYKOXGV-UHFFFAOYSA-N,CN(CCc1c[nH]c2c1c(O)ccc2)C,-0.929276483,1.9776,204.268
,C3470,SPJCRMJCFSJKDE-ZWBUGVOYSA-N,COc1cc(/C=C/C(=O)CCN2CCN(CC2)c2ccc(cc2)Cl)cc(c1OC)OC.Cl.O,-4.56493484,4.901,499.427
,C7124,SPLXTEULIVJMRZ-UHFFFAOYSA-N,CCN1CCN(CC1)c1cc2c(cc1F)c(=O)c(cn2C1CC1)C(=O)O,-2.024483734,2.3185,359.395
,C1719,SPPPYRUQHOFCCJ-UHFFFAOYSA-N,ClCCN(c1ccc(cc1)CC(=O)O[C@H]1CC[C@]2(C(=CC[C@@H]3[C@@H]2CC[C@]2([C@H]3CC[C@@H]2[C@@H](CCCC(C)C)C)C)C1)C)CCCl,-14.52387178,10.4663,644.797
,C7925,SPPTWHFVYKCNNK-FQEVSTJZSA-N,CCC(=O)c1ccc(cc1)NO,-1.435516387,2.1534,165.189
,C5627,SPSSULHKWOKEEL-UHFFFAOYSA-N,ClCCn1c(CC)cnc1[N+](=O)[O-],-2.960528388,2.1157,203.626
,C3553,SPTATJKIYXQBEN-UHFFFAOYSA-N,O=C([C@@H](NC(=O)c1ccccc1)Cc1ccc(cc1)O)Nc1ccc(cc1)C(=O)O,-4.481028314,3.5341,404.415
,C654,SPUNGTZJGMXOMY-UHFFFAOYSA-N,[O-][N+](=O)c1cc([N+](=O)[O-])c(c(c1)[N+](=O)[O-])C,-3.22,3.2892,227.131
,C3393,SPWCVDCYIJQRPF-UHFFFAOYSA-N,COc1cc2c(cc1OC)CC[NH+](C2CCCc1ccccc1)C.[Cl-],-4.634838623,1.4118,361.906
,C2061,SPWIGPQVICYSOT-XLPZGREQSA-N,Clc1cnc(c(c1)Cl)SCCCCCCCCCCN1CSCC1.Cl,-6.963351711,7.3475,443.925
,C6936,SQAINHDHICKHLX-UHFFFAOYSA-N,CCNC(=O)OCC(COC(=O)N)(CC)C,-2.133015707,2.3353,232.277
,C8047,SQAYXAICYAMUOG-UHFFFAOYSA-N,OC[C@H]1O[C@H](C[C@@H]1O)n1cc(F)c(nc1=O)NC,-1.316786974,-0.8622,259.234
,C6126,SQCWXTCIGOVJIK-UHFFFAOYSA-N,O=Cc1cccc2c1cccc2,-2.646354261,2.6523,156.181
,C4214,SQCZQTSHSZLZIQ-UHFFFAOYSA-N,CCC(Oc1ccc(cc1)C(=O)CCN1CCCCC1)C.Cl,-3.951952339,4.6625,325.873
,C8680,SQFIORDXMAQZNW-UHFFFAOYSA-N,CN1CCN(C1c1ccc(cc1)C)C,-0.703074593,1.7466,190.285
,C796,SQMCFUSVGSBKFK-UHFFFAOYSA-N,CCCCCCl,-2.73,2.4154,106.594
,C5011,SQMGCPHFHQGPIF-JIOYIOPFSA-N,CC(=O)N(c1nc(c(o1)c1ccccc1)c1ccccc1)C(=O)C,-3.378517205,3.908,320.342
,C8354,SQMLXMDRLSPKTA-UHFFFAOYSA-N,O=C1NC(=O)C(C(=O)N1C)(C)C1=CCCCC1.[Na+],-1.028130901,1.468,259.257
,C9345,SQMVHTYCDBPBJL-UHFFFAOYSA-N,COC[C@@]12CN(CC)C3[C@]4([C@@H]2[C@@H](OC)[C@@H]3[C@@]2([C@@H]3[C@H]4C[C@@]([C@@H]3O)([C@H]([C@@H]2O)OC)O)O)[C@H](C[C@H]1O)OC,0.301376692,-1.8495,499.594
,C3296,SQNAAVDKHCRGPU-UHFFFAOYSA-L,N/C(=N\CC12CC3CC(C2)(CC(C1)(C3)C)C)/CSS(=O)(=O)O,-4.741748609,4.6573,346.509
,C4713,SQNZJJAZBFDUTD-UHFFFAOYSA-N,CCN(CC(=O)N1C(C)(C)CC=CC1(C)C)CC,-3.595912801,2.6118,252.396
,C1948,SQQKOTVDGCJJKI-UHFFFAOYSA-N,C[N+]1(CCCCCCCCCCCC[N+]2(C)CCCC2)CCCC1.[I-].[I-],-7.514960652,-0.7062,592.423
,C314,SQSNGPIVSCOKRR-UHFFFAOYSA-N,Cc1cc(C)c(cc1C)C,-4.5900002,2.9202,134.218
,C4569,SQSZJFNQVXYHJO-UHFFFAOYSA-N,Brc1ccc(c(c1)C(=O)O)Br,-3.681730258,2.9098,279.913
,C2589,SQTKLANYSYZUQC-UHFFFAOYSA-N,CNCCCN1c2cc(Cl)ccc2Sc2c1ccc(c2)O,-5.678912453,4.7137,320.837
,C6403,SQVIAVUSQAWMKL-UHFFFAOYSA-N,CNN1C(C)(C)CCCC1(C)C,-2.473060026,2.4927,170.295
,C7212,SQVXWIUVAILQRH-UHFFFAOYSA-N,OCC(CSc1ccccc1C)O,-1.950925936,1.4403,198.282
,C9567,SQXZSACAVWZLES-UHFFFAOYSA-N,CCNCC(c1cccc(c1)O)O,0.530703655,1.426,181.232
,C5213,SQYNKIJPMDEDEG-UHFFFAOYSA-N,COc1ccc(cc1)c1cc(=O)c2c(o1)cc(cc2)O,-3.232669235,3.1742,268.264
,C5676,SRBFZHDQGSBBOR-QTBDOELSSA-N,CNC(c1ccccc1)Cc1ccccc1.Cl,-2.930148738,4.3827,247.763
,C9077,SRCOGSWMVAYDQE-UHFFFAOYSA-N,CC1OC(C)OC(O1)C,-0.071878721,1.0878,132.158
,C1596,SREQLAJQLXPNMC-DXYSAURFSA-N,O[C@H]1CO[C@@H]([C@H]([C@@H]1O)O)O,0.38999999,-2.5823,150.13
,C7872,SRFSMBZBBSVMKO-UHFFFAOYSA-L,ClCC1CC2CCN1CC2.Cl,-1.476933086,2.4494,196.117
,C1843,SRGKFVAASLQVBO-BTJKTKAUSA-N,COC(=O)/C=C(/C=C/C=C(/C=C/C1=C(C)CCCC1(C)C)\C)\C,-8.444499382,5.691,314.462
,C9419,SRGLANFDNQAVFW-LXCLTORNSA-N,C[N+](CCCCC[N+](C)(C)C)(C)C.[I-].[I-],0.354412691,-4.4229,442.162
,C8165,SRIJBBUJJSYXHB-UHFFFAOYSA-N,CN(CCC(c1ccccn1)c1ccc(cc1)Br)C.OC(=O)/C=C\C(=O)O,-1.217202688,3.6395,435.312
,C1767,SRJOCJYGOFTFLH-UHFFFAOYSA-N,CCCCCCC[NH+](C(=N)c1ccc(c2c1cccc2)OCC)CCCCCCC.[Cl-],-9.974630214,3.4933,447.096
,C5112,SRQKTCXJCCHINN-NYYWCZLTSA-N,CCC(c1ccccc1)C(=O)OCCN(CC)CC.Cl,-3.303701838,3.8672,299.836
,C9474,SRSKXJVMVSSSHB-UHFFFAOYSA-N,OC(=O)C1CCNCC1,0.390482249,0.3994,129.157
,C4676,SRVJKTDHMYAMHA-WUXMJOGZSA-N,[O-][N+](=O)c1ccc(o1)/C=N/N1CC(OC1=O)CSC,-3.620587202,2.1666,285.276
,C8449,SRWAMKHZLDKAHZ-UHFFFAOYSA-L,c1ncc2c(c1)[nH]cc2,-0.942381341,1.5629,118.136
,C4940,SRYJGFZDCPAKOC-LFYAFSDUSA-N,CC(=O)Nc1ccc(cc1)/C=N/NC(=S)N,-3.428968184,1.9763,236.293
,C9580,SRZOHCZNOHUVHY-UHFFFAOYSA-N,[O-]S(=O)(=O)c1ccccc1S(=O)(=O)[O-].[Na+].[Na+],0.549455318,1.6564,282.202
,C2105,SSAQWXVJZDVART-UHFFFAOYSA-N,Clc1ccc2c(c1)/C(=C\CCN(C1CCCC1)C)/c1c(S2)cccc1.Cl,-6.788105327,7.3028,406.412
,C2759,SSBDRUWRKMHEKG-UHFFFAOYSA-N,CCCCCC1CCCCN1CCCOC(=O)c1ccccc1,-5.426159821,4.6062,317.466
,C5765,SSBJNXYJAHFKJQ-UHFFFAOYSA-N,Oc1ccc(cc1)C(=O)c1cc(oc1C)C,-2.872529981,2.833,216.233