Name,Compound ID,InChIKey,SMILES,logS,logP,MW
,C6328,LULNWZDBKTWDGK-UHFFFAOYSA-M,CCC(=O)OC1(CCN(C1C)C)c1ccccc1,-2.519389247,2.497,247.333
,C854,LUMNFZCZEDAQNJ-QDPSZFTISA-N,Clc1cccc(c1)C(=O)O,-2.5899999,2.0382,156.566
,C9255,LUSHIYVPITXVAK-UHFFFAOYSA-N,O=C(N(C)C)Oc1cccc(c1)[N+](C)(C)C.[Br-],0.217240793,-1.0523,303.195
,C5503,LUWHVONVCYWRMZ-UHFFFAOYSA-N,O=C1C[C@@H]2OCC[C@H]3[C@H]4[C@@H]2[C@@H]2N1c1ccccc1[C@]12CCN([C@H]1C4)C3,-3.036802165,2.1753,336.427
,C3318,LUWRORGRVIUPSU-RFAYYOGSSA-N,OS(=O)(=O)SCCNCCC(c1ccccc1)(c1ccccc1)c1ccccc1,-4.710369334,6.0084,427.58
,C7647,LUYAMNYBNTVQJG-UHFFFAOYSA-N,CNC(Cc1ccc2c(c1)OCO2)C.Cl,-1.627971274,2.7586,229.703
,C2182,LVDKGYHINGQDRF-UHFFFAOYSA-N,Cc1ccc(cc1)N/N=C/1\C(=O)CC(C\C1=N/NC(=O)c1cnc([nH]c1=O)C)(C)C,-6.535604709,2.7936,408.454
,C1241,LVDKZNITIUWNER-UHFFFAOYSA-N,ClCCS(=O)(=O)CCCl,-1.5,1.9596,191.076
,C4270,LVHCUONWHLDNDW-ZROIWOOFSA-N,OC(=O)C(c1ccc2c(c1)nc(o2)c1ccccc1F)C,-3.905033823,3.822,285.27
,C9174,LVISWIXSNZQRHA-UHFFFAOYSA-N,OCC([N+](=O)[O-])(CO)Br,0.09693605,-0.1379,199.988
,C5608,LVJAHKSVOQLCEV-UHFFFAOYSA-N,CCN(/N=C\C(=O)c1ccc(cc1)Cl)CC,-2.971339529,2.8503,238.713
,C9443,LVKZSFMYNWRPJX-UHFFFAOYSA-N,CC(NCC(c1cccc(c1)O)O)C,0.370247767,1.8145,195.258
,C6592,LVNOZUPADRTWMK-UHFFFAOYSA-N,CC1CC(C(=O)O1)(CC=C)C(=O)NC(=O)N,-2.350232642,1.1704,226.229
,C8662,LVQRQSCTKFPBSE-UHFFFAOYSA-N,O[As](=O)(c1ccccc1)O,-0.726113306,-0.7524,202.04
,C2511,LVRKSDQLEQQBHH-UHFFFAOYSA-N,CC[NH+](CCOC(=O)CC1c2ccccc2c2c1cccc2)CC.[Cl-],-5.816602274,-0.3391,359.89
,C5164,LVROLHVSYNLFBE-UHFFFAOYSA-N,C[NH2+]CC=C(c1cccc(c1)F)c1cccc(c1)F.[Cl-],-3.269539376,-0.4063,295.755
,C7601,LVVRSRYXKCKALW-UHFFFAOYSA-N,CCOC(=O)c1cnc2n(c1=O)cc(cc2)C,-1.663332311,1.1796,232.235
,C122,LVYJIIRJQDEGBR-UHFFFAOYSA-N,Clc1ccc(c(c1c1ccccc1)Cl)Cl,-6.29,5.3138,257.543
,C7763,LVZBMEOGPGFHKB-UHFFFAOYSA-N,Nc1nc(nc(n1)N(C)C)N(C)C,-1.555443014,0.167,182.226
,C6810,LWBAYRVWDMTLKC-UHFFFAOYSA-N,FCCI,-2.199049224,1.3909,173.956
,C2465,LWBDLDRSUCFTEB-JLHYYAGUSA-N,CCCCCCCOc1ccc(cc1)NC(=O)OCC[NH+]1CCCCC1.[Cl-],-5.889725872,2.2993,398.967
,C4044,LWCIBYRXSHRIAP-UHFFFAOYSA-N,CC1CCCCN1CCCOC(=O)C1CCCCC1,-4.078877637,3.3123,267.407
,C8291,LWEBYMLDVJZRKF-UHFFFAOYSA-N,O=C(c1ccccc1)/C=N/N1CCOCC1,-1.100920088,1.1252,218.252
,C8368,LWHDQPLUIFIFFT-UHFFFAOYSA-N,OCC(COCc1ccccc1)O,-1.007740604,0.5564,182.216
,C3452,LWLJUMBEZJHXHV-UHFFFAOYSA-N,Clc1ccc2c(c1)c(N)c1c(n2)cccc1,-4.580351812,4.2048,228.677
,C4352,LWQZLQISFLBSGW-UHFFFAOYSA-N,BrC1=C(Br)C(=O)C(=C(C1=O)Br)Br,-3.842420661,3.141,423.679
,C69,LWSXRFQDNPVXIU-UHFFFAOYSA-N,ClC1=C(Cl)C(=C([C@]1(Cl)[C@]1(Cl)C(=C(C(=C1Cl)Cl)Cl)Cl)Cl)Cl,-7.2800002,7.7256,474.637
,C4263,LWUJMIFHFTUYOU-UHFFFAOYSA-N,ClC(=CCC1=C(O)c2c(C(=O)C1=O)cccc2)Cl,-3.912493514,3.4302,283.107
,C2423,LWULXYSYLOIDQY-UHFFFAOYSA-N,OC(=O)C(=O)O.CCC(=O)N(c1ccccc1)CC(N1CCC(CC1)c1ccccc1)C.CCC(=O)N(c1ccccc1)CC(N1CCC(CC1)c1ccccc1)C,-5.975995472,8.4268,791.029
,C5082,LWUYTXFIYUOZGE-UHFFFAOYSA-N,CCCCCCCCNCCCNCCSP(=O)(O)O.CCCCCCCCNCCCNCCSP(=O)(O)O.O.O.O,-3.324323613,6.8549,706.917
,C339,LWVTVUWDPRDWKX-UHFFFAOYSA-L,CC(=O)Oc1c([N+](=O)[O-])c(C)c(cc1C(C)(C)C)[N+](=O)[O-],-4.4699998,4.0806,296.276
,C2485,LWXUPCAADQWXRE-HZSDWAELSA-N,Clc1ccccc1CNC1CCC(CC1)NCc1ccccc1Cl.CC(=O)O.CC(=O)O,-5.852463814,6.1476,483.428
,C9402,LXACVVADKCRIQI-UHFFFAOYSA-N,C[N+](CCC1CC[N+](CC1)(C)C)(C)C.[I-].[I-],0.34277296,-4.4641,454.173
,C1996,LXCFILQKKLGQFO-UHFFFAOYSA-N,C/C=C\C=C\[C@@H]1O[C@@](O)([C@H]([C@@H](C1(C)C)O)O)[C@@H](C(=O)NC/C=C/C=C(/[C@H]([C@H]([C@@H]1O[C@@H]([C@@H]([C@@H]1O)O)/C=C/C=C/C=C(/C(=C/1\C(=O)NC=CC1=O)/O)\C)C)OC)\C)CC,-7.17633929,3.5424,796.943
,C4310,LXFFWIWHBKFGJU-UHFFFAOYSA-N,CCOC(=O)c1c(C)ccc(c1OCC(=O)OCCN(C)C)C(C)C,-3.863709809,2.7787,351.437
,C1147,LXGKFCALTYIGBW-UHFFFAOYSA-N,COC(=O)c1ccc(cc1)O,-1.78,1.1788,152.147
,C4021,LXHOGENDFZKPSF-UHFFFAOYSA-N,Brc1ccc(nc1)SCCCCCN1CSCC1.Cl,-4.094136295,4.8527,383.798
,C2596,LXMQMMSGERCRSU-UHFFFAOYSA-N,COc1cc2c(cc1OC)CCN(C2CCc1c(Cl)cccc1Cl)C,-5.669512187,5.1103,380.308
,C5462,LXMSZDCAJNLERA-YQNMCIRBSA-N,CN(c1ccc(cc1)C(c1ccc(cc1)N(C)C)(c1ccccc1)O)C,-3.062549395,4.1028,346.465
,C22,LXNHXLLTXMVWPM-UHFFFAOYSA-N,FC(c1cccc(c1)C(n1cncn1)(c1ccccc1)c1ccccc1)(F)F,-8.3999996,5.1371,379.378
,C383,LXRLABSDZUKVGP-UHFFFAOYSA-N,CC(=O)S[C@@H]1CC2=CC(=O)CC[C@]2([C@H]2[C@H]1[C@H]1CC[C@]3([C@@]1(CC2)C)CCC(=O)O3)C,-4.2800002,4.8523,416.573
,C9258,LXYHHQBJIVTGNY-UHFFFAOYSA-N,OCc1c(CO)cnc(c1O)C,0.221900113,0.0802,169.178
,C2602,LXZKVRZDXPACMC-UHFFFAOYSA-N,C[NH2+]CCCC1c2ccccc2CCc2c1cccc2.[Cl-],-5.656981045,-0.1055,301.854
,C3088,LYCOGTNKKCCKLN-UHFFFAOYSA-N,CC1CC(CC([NH+]1C)C)OC(=O)C(c1ccccc1)c1ccccc1.[Cl-],-5.004578121,1.389,373.916
,C4586,LYDULXUBCSVHIU-BUHFOSPRSA-N,CCCCOc1ccc(cc1Cl)CC(=O)O,-3.673260776,3.146,242.699
,C3535,LYFYXKGHAQOPTP-DHDCSXOGSA-N,CCC(=O)c1ccc(cc1)OCC(CN1CCN(CC1)c1cccc(c1)C(F)(F)F)O.Cl.Cl,-4.494863655,5.4669,509.389
,C4137,LYGJENNIWJXYER-UHFFFAOYSA-N,CN(/N=N/c1cccc(c1)C(F)(F)F)C,-4.013391476,3.2657,217.191
,C4969,LYKVTAYDCDKKNN-UHFFFAOYSA-N,CC(N1CCN(CC1)CC(=O)N/N=C\c1ccc(o1)[N+](=O)[O-])C,-3.402466925,1.4538,323.348
,C1579,LYMCPICMHHGLKL-UHFFFAOYSA-N,[O-][N+](=O)C,0.25999999,0.4161,61.04
,C5311,LYOMMGYLWUESDC-UHFFFAOYSA-M,CN1C2CCC1CC(C2)Oc1ccc(cc1)Cl.Cl,-3.156516017,4.0839,288.213
,C4284,LYQGEPVEGHFFJM-UHFFFAOYSA-N,Fc1cccc(c1)C(C(=O)c1ccccc1)CN1CCCC1.Cl,-3.891069358,4.6279,333.828
,C4229,LYQLXJMHHDAPRW-UHFFFAOYSA-N,ClCCN(c1cc(ccc1C)C(=O)NCC(=O)[O-])CCCl.[Na+],-3.940867556,1.1496,355.192
,C6511,LYXITZQJPFABBF-ZZAMHKPASA-N,Nc1ccc(cc1)C(=O)Nc1ccc(nc1C)C,-2.400727934,3.1871,241.288
,C3735,LYXOWKPVTCPORE-UHFFFAOYSA-N,C[NH+](CCOC(c1ccccc1)c1ccc(cc1)C(C)C)C.[Cl-],-4.308772558,0.0645,333.895
,C2862,LYZGJWXNOGIVQA-DDWIOCJRSA-M,CCC(C(/C=C/C=C(/CCC=C(C)C)\C)O)(O)C,-5.274981094,3.7572,252.392
,C2856,LYZGJWXNOGIVQA-QRPNPIFTSA-M,O=C(c1ccccc1)c1ccc(cc1)c1ccccc1,-5.27861914,4.5846,258.314
,C4340,LYZGJWXNOGIVQA-UHFFFAOYSA-M,C=CCC1([C@@H](CCC)C)C(=O)NC(=S)N=C1[O-].[Na+],-3.850363414,1.9932,276.33
,C4341,LZAKUZBAAQDJCF-UHFFFAOYSA-N,CCC[C@@H](C1(CC=C)C(=O)NC(=NC1=O)[S-])C.[Na+],-3.850363414,1.3088,276.33
,C7381,LZCAXNJTFIACNO-UHFFFAOYSA-L,CCCC(C1(CC=C)C(=O)NC(=NC1=O)[S-])C.[Na+],-1.827586199,1.3088,276.33
,C8796,LZCBNYVJTNCPDR-UHFFFAOYSA-N,O=C1OCC(C1)(C)C,-0.517123613,0.9595,114.142
,C3661,LZDKZFUFMNSQCJ-UHFFFAOYSA-N,CC[N+]1(C)CCC(CC1)CC[N+]1(CC)CCCC1.[I-].[I-],-4.37975947,-3.1909,508.264
,C4174,LZJRNLRASBVRRX-ZDUSSCGKSA-N,COc1ccc(cc1)S(=O)(=O)Nc1nnc(s1)CC(C)C,-3.987471311,3.6998,327.422
,C1436,LZKVXMYVBSNXER-YZPKDWIXSA-N,CCOCCOCC,-0.76999998,1.0594,118.174
,C5402,LZMATGARSSLFMQ-UHFFFAOYSA-N,COc1cc2c(cc1O)C[C@H]1c3c2c(OC)c(O)cc3CCN1C,-3.100747456,2.805,327.374
,C6455,LZNWYQJJBLGYLT-UHFFFAOYSA-N,CC[C@@](C(=O)O[C@H]1C(=O)O[C@H]2[C@]34[C@@H]1[C@@H](C)[C@@H](O)[C@@]([C@@H]4[C@@]1([C@@H](C2)C(=C[C@@H]([C@H]1O)O)C)C)(OC3)O)(O)C,-2.440693114,-0.3593,496.547
,C8286,LZRSJRREUJZNLN-UHFFFAOYSA-N,CC(NC(=O)N)C,-1.103387217,1.1543,102.135
,C3662,LZSHSTGCCZALGE-UHFFFAOYSA-N,O=C(C1=C(O)c2sccc2S(=O)(=O)N1C)Nc1ccccn1,-4.379192906,2.7342,337.374
,C6286,LZXCEBPGNFLHEQ-UHFFFAOYSA-N,NC(=O)OCCN1OCc2c(C1)ccc(c2)Cl,-2.540170463,2.3207,256.686
,C3022,LZXUGCWQXVQIDR-UHFFFAOYSA-N,CC[NH+](CCOC(=O)n1c2ccc(cc2c2c1cccc2)N)CC.[Cl-],-5.075678997,-0.1287,361.866
,C5324,LZXXNPOYQCLXRS-UHFFFAOYSA-N,ClCCN(Cc1ccccc1)Cc1ccccc1.Cl,-3.147971819,4.7296,296.235
,C8439,LZXYXZYVUMCUJG-UHFFFAOYSA-N,OP(=O)(SCCCNCCCNCCCSP(=O)(O)O)O,-0.948003133,1.7695,382.374
,C1209,LZYYNZUWBANDMX-UHFFFAOYSA-L,COC(=O)c1ccc(cc1)N,-1.59,1.6366,151.163
,C7201,LZZYPRNAOMGNLH-UHFFFAOYSA-M,FCCN(P(=O)(Cl)Cl)CCCl,-1.959715473,3.0824,242.444
,C9400,MADQXQUXQNQNPF-UHFFFAOYSA-N,C[N+](CCCCCC[N+](C)(C)C)(C)C.[I-].[I-],0.340849469,-4.0328,456.189
,C8767,MAEIEVLCKWDQJH-UHFFFAOYSA-N,CCCCCCCCCCCCCCCC[N+](C)(C)C.[Br-],-0.561645092,3.1779,364.447
,C5588,MAFFCSDANSLBTB-UHFFFAOYSA-N,O=C(C(c1ccccc1)(c1ccccc1)O)OCC[NH+]1CCCC1.[Cl-],-2.984516512,-0.2824,361.862
,C3246,MAFHATNPZLRYJY-UHFFFAOYSA-M,CCCCNc1cc(cc(c1Oc1ccccc1)S(=O)(=O)N)C(=O)O,-4.811011898,4.8906,364.416
,C3632,MAFMQEKGGFWBAB-UHFFFAOYSA-N,CNCCC1(CC(c2c1cccc2)C)c1ccccc1.Cl,-4.404255729,5.2823,301.854
,C4226,MAGVRYQQEVBJKC-UHFFFAOYSA-N,CC([N+](C)(C)C)CN1c2ccccc2Sc2c1cccc2.[I-],-3.942247482,1.453,426.358
,C2580,MAHAMBLNIDMREX-UHFFFAOYSA-N,COCCOCCOCCOCCOCCOCCOCCOCCOCCOC(=O)c1ccc(cc1)NCCCC,-5.691658777,2.9076,603.742
,C6090,MAHSANFPQVGYHC-UHFFFAOYSA-N,CN(c1c(=O)n(c2ccccc2)c(=O)n(c1C)C)C,-2.66253847,0.9106,259.304
,C6193,MAIFJEXJCJPOCM-UHFFFAOYSA-N,OC(=O)c1cc2c(n1C)cccc2,-2.600049199,1.8765,175.184
,C4519,MAODNVTZUXOBNL-UHFFFAOYSA-N,CCc1sc2c(c1)C(=NCC(=O)N2C)c1ccccc1F.Cl,-3.709774,3.566,338.827
,C2801,MAQBLRFYCNOQJD-UHFFFAOYSA-N,CCCC[NH+](CCC1(c2ccccc2)C(=O)Oc2c1cccc2)CCCC.[Cl-],-5.34652048,0.7709,401.969
,C5054,MARBJSDTJFJORF-UHFFFAOYSA-N,CCN(C(C(=O)Nc1c(C)cccc1C)C)CC,-3.343560747,3.0452,248.364
,C5850,MARGMYHNEQURTE-UHFFFAOYSA-N,CCC(=O)N1C2CCC1CN(C2)Cc1ccccc1,-2.811260768,2.1476,258.359
,C7866,MATCWAFODDJQNN-UHFFFAOYSA-M,O=C(CN1CCOCC1)NCc1ccccc1,-1.481871947,0.9638,234.294
,C2545,MATCZHXABVLZIE-UHFFFAOYSA-N,CCC(C(c1ccccc1)(c1ccccc1)CC([NH+](C)C)C)OC(=O)CC.[Cl-],-5.745435069,0.6316,403.985
,C6582,MATYDTQTFVEWLI-UHFFFAOYSA-N,CCC1(OC(=O)[N-]C1=O)c1ccccc1.[Na+],-2.356398789,1.6729,227.192
,C7429,MAUBFEHMBSQXMM-UHFFFAOYSA-N,Clc1ccc2c(c1)oc(=O)[nH]2,-1.796364362,1.7745,169.565
,C4612,MAVAXPFTVGSHTB-UHFFFAOYSA-N,CN1CCC(CC1)(c1ccccc1)c1ccccc1.Cl,-3.661177908,4.4382,287.827
,C7131,MAYPTSUDLAWBGU-UHFFFAOYSA-N,O=C(c1ccccn1)NNCc1ccccc1,-2.020076645,2.298,227.262
,C8077,MAYVLFIUCRDJPJ-UHFFFAOYSA-N,C1CNC(C1)c1c[nH]c2c1cccc2,-1.291934418,2.9212,186.253
,C7001,MBABOKRGFJTBAE-UHFFFAOYSA-N,O=C(c1ccc(cc1)[N+](=O)[O-])Nc1ncnc2c1[nH]cn2,-2.086321619,2.1096,284.23
,C2447,MBAIEZXRGAOPKH-UHFFFAOYSA-N,C[NH+](CCCC1c2ccccc2C(c2c1cccc2)(C)C)C.[Cl-],-5.920702913,0.3865,329.907
,C9910,MBDMKWJEKDHRRP-UHFFFAOYSA-N,COS(=O)(=O)C,0.958106191,0.6732,110.132
,C146,MBDNRNMVTZADMQ-UHFFFAOYSA-N,C1Cc2ccc3c4c2c(C1)ccc4CCC3,-5.96,3.8172,208.298
,C317,MBDSEQQSRUBDRQ-UHFFFAOYSA-N,CCOC(=O)c1ccccc1S(=O)(=O)NN(c1nc(Cl)cc(n1)OC)C=O,-4.5799999,3.2792,414.821
,C9374,MBDUIEKYVPVZJH-UHFFFAOYSA-N,O=S1(=O)CC=CC1,0.32079039,1.0518,118.154
,C3963,MBEIYAXOZCKVDR-UHFFFAOYSA-N,C[NH2+]CCCN1c2ccccc2[NH2+]Cc2c1cccc2.[Cl-].[Cl-],-4.130451186,-3.2413,340.291
,C1567,MBGGBVCUIVRRBF-UHFFFAOYSA-N,CCS(=O)(=O)CC,0.039999999,1.5218,122.186
,C4328,MBGTZOAOUKGRQG-UHFFFAOYSA-N,CCC(=O)N1C2CCC1CN(C2)CCCc1ccccc1,-3.853857467,2.5802,286.412
,C3996,MBHNWCYEGXQEIT-UHFFFAOYSA-N,O=C1N(c2ccccc2)N(C(=O)C1CCS(=O)c1ccccc1)c1ccccc1,-4.112885983,4.7912,404.482
,C4241,MBJYNNMHFMUBHI-UHFFFAOYSA-N,CCCC[NH2+]CCOC(=O)c1cccc(c1OCCCC)OC.[Cl-],-3.932921684,-0.6016,359.888
,C1906,MBLSJHGGVBNRPT-UHFFFAOYSA-N,OCCN1CCN(CC1)CCCN1c2ccccc2Sc2c1cc(cc2)C(F)(F)F.Cl.Cl,-7.829998608,5.8529,510.443
,C7309,MBMQEIFVQACCCH-QBODLPLBSA-N,OCC(COc1ccc(cc1)C)(O)C,-1.879501049,1.1171,196.243
,C7287,MBRLOUHOWLUMFF-UHFFFAOYSA-N,COc1ccc(cc1)N1CCN(CC1)CC1CN=C(O1)N,-1.898636348,0.6695,290.361
,C4060,MBVCESWADCIXJN-UHFFFAOYSA-N,C[C@H]1CCCC(=O)CCC/C=C/c2c(C(=O)O1)c(O)cc(c2)O,-4.068042639,3.5796,318.364
,C375,MBWCTVKYEHQORY-YGICXTQQSA-N,COc1ccc2c(c1CC=C(C)C)oc(=O)cc2,-4.3099999,3.3103,244.286
,C7154,MBWXNTAXLNYFJB-NKFFZRIASA-N,Brc1ccc2c(c1)C(=O)C(=O)N2,-1.996229336,1.7219,226.027
,C3999,MBZDFRQDGNXUKS-WUKNDPDISA-N,Nc1ccc(cc1)CCN1CC[C@@]23[C@H]([C@H]1Cc1c3cc(cc1)O)CCCC2.Cl,-4.110987215,5.5966,398.969
,C1732,MCBNZMRZUYBCAD-MWMYENNMSA-N,C[C@H](CCC[C@@H](CCCC(C)C)C)CCC/C(=C/CC1=C(C)C(=O)c2c(C1=O)cccc2)/C,-11.96104738,9.1576,450.696
,C3415,MCCACAIVAXEFAL-UHFFFAOYSA-N,CN(Cc1ccccc1)/N=N/c1ccc(cc1)C(=O)O,-4.614731451,3.5155,269.298
,C8324,MCDJZKPTBCWNSJ-UHFFFAOYSA-N,CC(CC(C)(C)C)OCn1ccn(/c/1=C/[NH+]=O)C.[Cl-],-1.074714534,-2.5045,289.802
,C1924,MCHADYPYCJQLMV-AWEZNQCLSA-N,Clc1ccc(c(c1)Cl)COC(c1ccc(cc1Cl)Cl)Cn1cncc1.[O-][N+](=O)O,-7.635134927,6.6303,479.141
,C7508,MCICEZSGVOVLQQ-UHFFFAOYSA-N,CC(CS(=O)CC(C)C)C,-1.731727941,2.9128,162.293
,C4191,MCILYHVMCGKQGR-UHFFFAOYSA-L,COc1ccc2c(cc1=O)[C@H](CCc1c2c(OC)c(c(c1)OC)OC)NC(=O)C(F)(F)F,-3.973447887,3.8049,453.408
,C6325,MCJGNVYPOGVAJF-UHFFFAOYSA-N,ClCCN(C(Cc1ccccc1)C)C.Cl,-2.520304194,3.5902,248.192
,C9492,MCLOPXVYPGACGR-UHFFFAOYSA-N,CC[N+](CCOCCC[N+](C)(C)C)(CC)C.[Br-].[Br-],0.406470265,-4.4063,392.214
,C913,MCOQHIWZJUDQIC-UHFFFAOYSA-N,Oc1cccc2c1nccc2,-2.4200001,1.9404,145.158
,C3710,MCPROACZLSAAPY-UHFFFAOYSA-N,CCCOC(=O)N1C(OC)C=Cc2c1cccc2,-4.336308746,3.1039,247.29
,C362,MCRZDGWCWKQOMX-UHFFFAOYSA-N,ClCC#CCOC(=O)Nc1cccc(c1)Cl,-4.3699999,3.2037,258.101
,C7712,MCSAJNNLRCFZED-UHFFFAOYSA-N,CCCn1c(=O)n(C)c(=O)c2c1nc[nH]2,-1.590901929,-0.1667,208.217
,C4843,MCSINKKTEDDPNK-UHFFFAOYSA-N,CCCC(COC(=O)N)(COC(=O)Nc1ccco1)C,-3.506361484,3.5031,284.308
,C1531,MCTNRBUJWLUDJG-UHFFFAOYSA-N,[O-][N+](=O)CC,-0.22,0.8062,75.0666
,C1423,MCTZLPKUFFIIJT-UHFFFAOYSA-M,CCCOC(=O)CC,-0.81999999,1.3496,116.158
,C6503,MCWAFEJHLHEFOD-UHFFFAOYSA-N,C=CCC1(CC=C)C(=O)N(C)C(=O)N(C1=O)C,-2.406799433,1.0512,236.267
,C9618,MCXQUAWISQTVDK-UHFFFAOYSA-N,CCCCC[N+](C)(C)C.[I-],0.589798272,-1.1132,257.156
,C2234,MCZDSVGBUYVFMC-UHFFFAOYSA-N,CN(CC(CC1c2ccccc2CCc2c1cccc2)C)C.Cl,-6.394546458,5.3069,329.907
,C4511,MDAXKAUIABOHTD-UHFFFAOYSA-N,OC(=O)C(=O)[O-].CC[NH+]1CCCC(C1)OC(=O)Nc1ccccc1Cl,-3.718388704,1.4188,372.801
,C2316,MDCFFJPIOHVMNO-UHFFFAOYSA-N,CCCCOc1ccc(cc1)OCC(=O)N(c1cccc(c1)OC)CCN(CC)CC.Cl,-6.187474971,5.4299,465.025
,C9754,MDFZYGLOIJNNRM-OAJDADRGSA-N,C1CNCCNCCCNCCNC1,0.698254009,0.4538,200.324
,C3613,MDHISCUTYIDPBM-UHFFFAOYSA-N,CCCCCCCCCCCCCNCCSS(=O)(=O)O,-4.423697615,5.8947,339.557
,C1943,MDIFHVYPHRHKLB-FPLPWBNLSA-N,CC(=O)O[C@H]1C[C@]2([C@H](/C/1=C(/C(=O)O)\CCC=C(C)C)CC[C@@H]1[C@]2(C)C(=O)[C@@H](OC(=O)C)[C@@H]2[C@]1(C)C=CC(=O)[C@H]2C)C,-7.53845872,5.4001,568.698
,C3790,MDKCFLQDBWCQCV-UHFFFAOYSA-N,CC(CNCC1CCC(CC1)CNCC(C)C)C.Cl.Cl,-4.257370903,5.6698,327.376
,C8105,MDKGKXOCJGEUJW-UHFFFAOYSA-N,O/N=C\1/CCCCC1C,-1.266223502,2.0267,127.184
,C5347,MDLAAYDRRZXJIF-UHFFFAOYSA-N,S=C=NCc1ccccc1,-3.136374343,2.2894,149.213
,C5413,MDNWOSOZYLHTCG-UHFFFAOYSA-N,OC(=O)C(c1ccc(cc1)C(=O)c1cccs1)C,-3.095339578,3.1672,260.308
,C1851,MDQKYGOECVSPIW-UHFFFAOYSA-N,Fc1ccc(cc1)C(c1ccc(cc1)F)CCCN1CCC(CC1)(O)c1ccc(c(c1)C(F)(F)F)Cl,-8.385256623,7.4706,523.965
,C462,MDQMPQGZNSBLCI-UHFFFAOYSA-N,Oc1ccc(cc1Cc1cc(Cl)ccc1O)Cl,-3.95,3.9954,269.123
,C5074,MDUCGIRKSXVGBH-UHFFFAOYSA-N,N#Cc1c(O)c(Cl)c(c(c1Cl)C#N)Cl,-3.329045264,3.09576,247.465
,C3764,MDXJQOMLGMACCV-UHFFFAOYSA-M,CCCCN1CCC(CC1)(CCCC)OC(=O)CC.Cl,-4.276045991,4.5044,305.884
,C3899,MDXNMVCZLPPTQC-RMKNXTFCSA-N,COc1ccccc1C1SCCCS1,-4.175807408,3.5639,226.358
,C7161,MDYALASTPGGXQH-UHFFFAOYSA-N,CCC1(CC)C(=O)[N-]C(=S)NC1=O.[Na+],-1.988883493,0.7671,222.24
,C5378,MDYOLVRUBBJPFM-UHFFFAOYSA-N,CCC(=O)NN1C2CCC1CN(C2)C/C=C/c1ccccc1,-3.11078992,2.5563,299.411
,C5617,MECHNRXZTMCUDQ-RKHKHRCZSA-N,COc1c(OC)cc2c(c1OC)c1ccc(=O)c(cc1C(CC2)NC(=O)C)OC,-2.965971057,3.2625,399.437
,C8820,MEDQPHZEAUFCTK-UHFFFAOYSA-N,Oc1cccccc1=O,-0.475392827,0.7524,122.121
,C4279,MEEBSVXYUBUBGG-UHFFFAOYSA-N,O[C@H]1CCC(=C)/C(=C\C=C\2/CCC[C@]3([C@H]2CC[C@@H]3[C@@H](/C=C/[C@@H](C(C)C)C)C)C)/C1,-3.899447308,7.641,396.648
,C6512,MEEKGULDSDXFCN-UHFFFAOYSA-N,O=C1CC(=NN1Cc1ccccc1)C,-2.400207025,1.1683,188.226
,C7760,MEFAXPOIMLNACU-UHFFFAOYSA-N,CCNC(=O)N1CCN(CC1)C.Cl,-1.557018195,1.032,207.701
,C5187,MEGRETRVTYTRSM-UHFFFAOYSA-N,CCCCCc1ccccc1O,-3.256458698,3.1249,164.244
,C7695,MEIRRNXMZYDVDW-MQQKCMAXSA-N,CCCC(CC(OC(=O)N)C)OC(=O)N,-1.600972916,2.5249,218.25
,C3288,METKIMKYRPQLGS-UHFFFAOYSA-N,ClCCN(c1cc(ccc1C)C(=O)NCC)CCCl,-4.750985579,3.4196,303.227
,C8751,METVSRFIOHSNJX-UHFFFAOYSA-N,C/C=C/C=C/CO,-0.579239646,1.111,98.143
,C1706,METWAQRCMRWDAW-UHFFFAOYSA-N,OC(COc1ccc(cc1)CC(=O)N)CNC(C)C	,-1.21 ,1.5433,266.336
,C9694,MEVXADNQQUNQKB-UHFFFAOYSA-N,ClC[Si]12OCCN(CCO1)CCO2,0.65027966,0.4385,223.729
,C6659,MFBGBDQKGVVUET-UHFFFAOYSA-N,CCc1cccc(c1O)CC,-2.305216061,2.517,150.218
,C6302,MFDFERRIHVXMIY-UHFFFAOYSA-N,OCC(COc1c(C)cccc1Cl)O,-2.533007018,1.3804,216.661
,C2905,MFEILWXBDBCWKF-UHFFFAOYSA-N,CN1CCC2=C(C1CCc1ccccc1[N+](=O)[O-])CCCC2,-5.222430329,4.5632,300.395
,C1271,MFESCIUQSIBMSM-UHFFFAOYSA-N,CCN(CCOC(=O)c1ccc(cc1)N)CC,-1.4,2.3486,236.31
,C7280,MFHDWFVXLYMMKW-UHFFFAOYSA-N,ClC(=O)CCc1ccccc1,-1.906762799,2.3846,168.62
,C1126,MFJZFKAOTQGJFQ-UHFFFAOYSA-N,ClCCCBr,-1.85,2.0102,157.437
,C3667,MFKMOLJNQHPVHC-UHFFFAOYSA-N,[O-]P(=O)(O)O.COc1cc(NCCCCC[NH2+]C(C)C)c2c(c1)cccn2,-4.373551812,2.38,399.422
,C7313,MFLQZNBZGHJWPK-UHFFFAOYSA-N,C(CCN1CSCC1)CCOc1ccncc1.Cl.Cl,-1.876789623,4.1789,325.298
,C8067,MFLUYHDIXUHWTL-UHFFFAOYSA-N,OCC(COCc1ccc(cc1)OC)O,-1.29745369,0.565,212.242
,C6189,MFOCDFTXLCYLKU-CMPLNLGQSA-N,O=c1c2ccccc2n(c(=O)n1c1ccccc1)CCN1CCOCC1.Cl,-2.601013218,2.2245,387.86
,C5099,MFOUDYKPLGXPGO-UHFFFAOYSA-N,ON1CCN(CC1)C(CC12CC3CC(C2)CC(C1)C3)C.Cl.Cl,-3.312751251,4.468,351.355
,C8340,MFPLUSZGRGRXTL-JOZOFPPJSA-N,C[C@@H]1N(C)CCO[C@H]1c1ccccc1,-1.043358872,2.0161,191.269
,C895,MFRUVSDIZTZFFL-UHFFFAOYSA-N,ClCC(=O)N(c1ccccc1)C(C)C,-2.48,2.6668,211.688
,C6765,MFSHNFBQNVGXJX-UHFFFAOYSA-N,O=C(CN1CCNCC1)N/N=C/c1ccc(o1)[N+](=O)[O-].Cl.Cl,-2.239603663,2.3279,354.19
,C8990,MFSMSTRTIKKQPV-UHFFFAOYSA-N,BrCCN(C)C.Br,-0.233718232,1.901,232.945
,C7158,MFTITSKWDGOERL-UHFFFAOYSA-N,O=c1[nH]c2ccccc2c(c1)C(=O)O,-1.993551035,1.2263,189.167
,C6508,MFUHTALWGBAVOL-UHFFFAOYSA-N,Clc1cccc(c1)n1c(=O)nc2n(c1=O)cco2,-2.403973005,1.0918,263.637
,C4466,MFVCIOLUKKPQLX-UHFFFAOYSA-N,CCCCN1CCC(CC1)(OC(=O)CCC)c1cccnc1.Cl.Cl,-3.753922721,5.058,377.349
,C5863,MFWYIFRPVITMEP-UHFFFAOYSA-N,CC(=O)OC(COC(=O)C)COc1ccccc1,-2.803068231,1.5602,252.263
,C4463,MFYJYJNQWAXDNP-UKTHLTGXSA-N,c1ccc(cc1)N1CCN(CC1)CC1CCc2c(N1)cccc2,-3.756173033,3.3764,307.433
,C8711,MFYSYFVPBJMHGN-ZPOLXVRWSA-N,CC(=O)SCCF,-0.652349454,1.2356,122.161
,C7600,MFZCIDXOLLEMOO-UHFFFAOYSA-N,O=C(c1ccc(cc1)[N+](=O)[O-])/C=N/N1CCOCC1,-1.663737204,1.5566,263.249
,C691,MFZOSKPPVCIFMT-UHFFFAOYSA-N,OCC(=O)[C@@]1(O)CC[C@@H]2[C@]1(C)CC(=O)[C@H]1[C@H]2CCC2=CC(=O)CC[C@]12C,-3.1099999,1.9898,360.444
,C2719,MFZWMTSUNYWVBU-UHFFFAOYSA-N,O=C(c1cccnc1)OC1C(OC(=O)c2cccnc2)C(OC(=O)c2cccnc2)C(C(C1OC(=O)c1cccnc1)OC(=O)c1cccnc1)OC(=O)c1cccnc1,-5.479771301,3.7236,810.721
,C3953,MGFREDWKELGWML-UHFFFAOYSA-N,C#CCN1C(=O)CN=C(c2c1ccc(c2)Cl)c1ccccc1,-4.137638624,2.6578,308.762
,C3337,MGFVNWXRFBPCJJ-UHFFFAOYSA-M,CCN(CCNc1ccc(c2c1c(=O)c1c(s2)cccc1)CO)CC,-4.689193394,3.7337,356.482
,C8631,MGFZNWDWOKASQZ-UMLIZJHQSA-M,N1CCc2c(C1)cccc2.Cl,-0.762691338,2.4631,169.651
,C9736,MGHPNCMVUAKAIE-UHFFFAOYSA-N,ClCC[N+](CCCl)(C)C.[Cl-],0.685006341,-1.4556,206.541
,C9046,MGJBHISEQPOUJP-MLVYHOMMSA-N,COc1cccc(c1C(=O)N[C@@H]1C(=O)N2[C@@H]1SC([C@@H]2C(=O)[O-])(C)C)OC.[Na+],-0.12753348,-0.0568,402.397
,C7528,MGJBHISEQPOUJP-OVAHNPOGSA-N,NC(c1ccccc1)c1ccccc1,-1.722723988,3.435,183.249
,C4007,MGOCBXKZDZRPMK-UHFFFAOYSA-N,COC(=O)[C@]1(CCC(c2c1cccc2)[NH+](C)C)c1ccccc1.[Cl-],-4.107545363,-0.8709,345.863
,C4006,MGPDSKXOTDLPJE-UHFFFAOYSA-N,COC(=O)[C@]1(CC[C@H](c2c1cccc2)[NH+](C)C)c1ccccc1.[Cl-],-4.107545363,-0.8709,345.863
,C6422,MGSRCZKZVOBKFT-UHFFFAOYSA-N,O=C1Nc2cc(Cl)ccc2OC1C,-2.458869763,2.1974,197.618
,C8697,MGVXLAPXABNABN-UHFFFAOYSA-N,CCOC(=O)N1CC1,-0.677380683,0.3964,115.13
,C998,MGWAVDBGNNKXQV-UHFFFAOYSA-N,Cc1ccc(c(c1)O)C(C)C,-2.22,2.824,150.218
,C2379,MGYKILFGZRQEFK-UHFFFAOYSA-N,CCCN(CCOc1c(cc(cc1c1ccccc1)Br)C(=O)N)CCC,-6.059109035,5.4161,419.355
,C295,MGYMHQJELJYRQS-UHFFFAOYSA-N,CC(COC(=O)c1ccccc1C(=O)OCC(C)C)C,-4.6599998,3.3122,278.343
,C5757,MGZOLDRJCCCSOA-UHFFFAOYSA-N,COc1cccc(c1)N1CCN(CC1)CC(COc1cccc(c1)C(=O)C)O,-2.875599286,2.4626,384.469
,C5168,MHIJSBZYRPBLSD-UHFFFAOYSA-N,CC(C12CCC(OO1)(C=C2)C)C,-3.267068456,2.4517,168.233
,C7781,MHMRAFONCSQAIA-UHFFFAOYSA-N,CN(C(=O)OCC(COC(=O)N)(C)C)C,-1.541000598,1.5064,218.25
,C5016,MHMTXDMLQZHXRZ-UHFFFAOYSA-N,C=CCN1CCCCC1Cc1ccccc1.Cl,-3.375746411,4.0095,251.795
,C5505,MHMVGOIOCAQGJD-UHFFFAOYSA-L,CC(=O)Nc1c(=O)n(c2c1ssc2)C,-3.036256179,1.6445,228.291
,C2982,MHNNAWXXUZQSNM-UHFFFAOYSA-N,Clc1ccc(cc1)Cn1c(C)nc2c1cccc2.Cl,-5.128694156,4.8484,293.191
,C9491,MHNSPTUQQIYJOT-SJDTYFKWSA-N,CC[N+](CCOCC[N+](CC)(CC)C)(C)C.[Br-].[Br-],0.406470265,-4.4063,392.214
,C799,MHOURTKZILVYRM-UHFFFAOYSA-N,CCC(=C)C,-2.73,1.9725,70.1329
,C2981,MHPYROYXMZWPNN-UHFFFAOYSA-N,CN(CC/C=C\1/c2ccccc2OCc2c1cccc2)C.Cl,-5.130252649,4.7644,315.837