Name,Compound ID,InChIKey,SMILES,logS,logP,MW
,C3532,QGDKRLQRLFUJPP-UHFFFAOYSA-N,CCCCN1CCN(CC1C(=O)Nc1c(C)cccc1C)CCCC.ON=O.ON=O,-4.50000041,4.0611,439.549
,C3719,QGFGZTLOUOJUQB-UHFFFAOYSA-N,O=C(c1ccc(cc1)c1ccc(cc1)C(=O)C[n+]1ccccc1C)C[n+]1ccccc1C.[Br-].[Br-],-4.324264557,-1.6808,582.326
,C55,QGGXNMYRWYGBRV-SJDTYFKWSA-N,Clc1cc(Cl)c(c(c1c1ccccc1Cl)Cl)Cl,-7.4299998,6.6206,326.433
,C2521,QGHFKHLAYNXMED-UHFFFAOYSA-N,ClCCN(c1cc(ccc1C)C(=O)Nc1nccs1)CCCl,-5.796069168,4.0608,358.286
,C8057,QGMRQYFBGABWDR-FJXQXJEOSA-M,O=[NH+]/C=c\1/n(COCc2cccc3c2cccc3)ccn1C.[Cl-],-1.312166349,-1.9758,331.797
,C4311,QGMRQYFBGABWDR-OGFXRTJISA-M,COC(=O)c1c(C)ccc(c1OCC(=O)OCCCN(C)C)C(C)C,-3.863709809,2.7787,351.437
,C6049,QGMRQYFBGABWDR-UHFFFAOYSA-M,CCC[C@@H](C1(CC)C(=O)[N-]C(=O)NC1=O)C.[Na+],-2.684785887,1.6284,248.254
,C6050,QGOXHXFKOTUXNE-UHFFFAOYSA-N,CCC[C@H](C1(CC)C(=O)[N-]C(=O)NC1=O)C.[Na+],-2.684785887,1.6284,248.254
,C7721,QGQNYQWNUGSMAB-UHFFFAOYSA-N,CCCC(C1(CC)C(=O)NC(=NC1=O)[O-])C.[Na+],-1.581989896,1.0263,248.254
,C8269,QGQQPPFXESPMCO-UHFFFAOYSA-N,CCC(COC(=O)N)COC(=O)NC,-1.119779333,1.5551,204.224
,C2109,QGRPVMLBTFGQDQ-UHFFFAOYSA-N,C1CCC(CC1)Nc1c2ccccc2nc2c1cccc2,-6.782546484,5.2056,276.375
,C5869,QGUPBYVADAJUNT-UHFFFAOYSA-N,CCCOc1ccc(cc1Cl)CC(=O)NO,-2.79688276,2.5676,243.687
,C901,QGVNJRROSLYGKF-UHFFFAOYSA-N,COc1ccccc1Cl,-2.46,2.3486,142.583
,C4207,QGXBDMJGAMFCBF-LUJOEAJASA-N,CCC(=O)C(c1ccccc1)(c1ccccc1)CC(N1CCOCC1)C.Cl,-3.960384587,4.8025,387.943
,C7223,QGZBIYWLPWSMQC-UHFFFAOYSA-N,CCC1(CC)C(=O)NC(=S)NC1=O,-1.942889438,0.9813,200.258
,C413,QHACRDBQKDNTBY-UHFFFAOYSA-N,O[C@H]1CC[C@]2([C@H](C1)CC[C@@H]1[C@@H]2CC[C@]2([C@H]1CCC2=O)C)C,-4.1599998,3.9591,290.44
,C7975,QHCPEVCCVPNQHM-UHFFFAOYSA-N,CCNc1nc(=O)nc([nH]1)C,-1.387978964,-0.0219,154.17
,C6320,QHESLVVDHLELBB-UHFFFAOYSA-N,FCCCCCSC#N,-2.522517994,2.34048,147.214
,C3976,QHGUCRYDKWKLMG-UHFFFAOYSA-N,c1ccc(cc1)Cc1nc2c(o1)cccc2,-4.122004229,3.4186,209.243
,C7820,QHHNVIFYIZJACJ-RMKNXTFCSA-N,CC(CNC(Cc1ccccc1)(C)C)O,-1.514545658,2.369,207.312
,C9856,QHHPPKHDJVVPQH-UHFFFAOYSA-N,NCC(c1ccc(cc1)O)O,0.8147951,1.0846,153.178
,C5737,QHJMFSMPSZREIF-UHFFFAOYSA-N,CCC(=O)N1C2CCC1C(=O)N(C2)C/C=C/c1ccccc1,-2.891579654,2.1874,298.379
,C7068,QHMBSVQNZZTUGM-ZWKOTPCHSA-N,COc1ncnc2c1cccc2,-2.052615021,1.6384,160.173
,C381,QHMIESFIOZHTJY-UHFFFAOYSA-N,Cc1cc2ccccc2c(c1)C,-4.29,3.4566,156.224
,C1959,QHPIKJYLKLSWLD-UHFFFAOYSA-N,CCCCCc1cc(O)c(c(c1)O)[C@@H]1C=C(C)CC[C@H]1C(=C)C,-7.412287248,5.8465,314.462
,C3909,QHPQWRBYOIRBIT-UHFFFAOYSA-N,CC(C(c1ccccc1)(c1ccccc1)OC(=O)C)C[NH+](C)C.[Cl-],-4.168521204,-0.7221,347.879
,C3997,QHTJSSMHBLGUHV-UHFFFAOYSA-N,OCCN1CCN(CC1)CCCC1(OC(c2c1cccc2)(C)C)c1ccccc1.Cl.Cl,-4.111049829,5.0654,467.472
,C918,QHVCONQZXJPGQZ-UHFFFAOYSA-N,CC(c1ccc(cc1)O)(C)C,-2.4100001,2.6897,150.218
,C417,QHWDUJPWCGEBTH-UHFFFAOYSA-N,CCC(c1ccccc1)(C)C,-4.1500001,3.3742,148.245
,C7205,QHWYYBXPBFQGNI-UHFFFAOYSA-N,Nc1oc2c(n1)cc(cc2)[N+](=O)[O-],-1.954327347,2.4226,179.133
,C6705,QHXDTLYEHWXDSO-UHFFFAOYSA-N,Nc1ccc(cc1)C(=O)Nc1ccccc1,-2.26994694,3.1753,212.247
,C6518,QHXLVTODHKJVJK-ZTMWJVNESA-N,NC(=O)Nc1cc(ccc1O)C(CNC(C)(C)C)O.Cl,-2.39620934,3.2705,303.785
,C355,QIAFMBKCNZACKA-UHFFFAOYSA-N,CCN(c1nc(nc(n1)Cl)N(CC)CC)CC,-4.4099998,2.2174,257.763
,C4814,QIBWCUCLHZVYNL-UHFFFAOYSA-N,O[C@H]([C@H](C(=O)O)O)C(=O)O.CC(=O)Oc1ccc2c(c1)[C@]13CCCC[C@H]3[C@@H](C2)N(CC1)C,-3.528878055,1.1154,449.494
,C1174,QIFFMXMEBPAKMS-BTJKTKAUSA-N,O=C(c1ccccc1)NCC(=O)O,-1.6799999,0.8919,179.173
,C622,QIFHNTOKFMLIEO-UHFFFAOYSA-N,CCn1c2ncccc2c(=O)n(c2c1cccc2)C,-3.3199999,2.4703,253.299
,C2482,QIGBRXMKCJKVMJ-UHFFFAOYSA-N,CN1CCC(CC1)OC1c2ccccc2CCc2c1cccc2.OC(=O)/C=C\C(=O)O,-5.854540937,3.6351,423.501
,C2202,QIGRLMYLFKLTOE-UHFFFAOYSA-N,OCCN1CCN(CC1)CCC=C1c2cc(Cl)ccc2Sc2c1cc(Cl)cc2.Cl.Cl,-6.475690839,6.3695,508.332
,C1540,QIHLUZAFSSMXHQ-UHFFFAOYSA-N,Oc1ccc(cc1)O,-0.17,1.0978,110.111
,C2617,QIKOQLHSUDUZIY-UHFFFAOYSA-N,N#CC(Cc1cccc2c1cccc2)(CC[NH+](C)C)CC=C(C)C.[Cl-],-5.626250327,0.78718,356.932
,C3342,QILSFLSDHQAZET-UHFFFAOYSA-N,CC(N1CCC(CC1)(c1ccccc1)c1ccccc1)(C)C,-4.688087865,4.8049,293.446
,C3850,QIMMUPPBPVKWKM-UHFFFAOYSA-N,O=C(Cc1ccc(cc1)F)CCN1CCN2C(C1)CCc1c2cccc1.Cl.Cl,-4.207161899,5.0713,425.367
,C873,QIOZLISABUUKJY-UHFFFAOYSA-N,OC(c1ccccc1)c1ccccc1,-2.55,2.7683,184.234
,C500,QIQXTHQIDYTFRH-UHFFFAOYSA-N,Cc1ccc2c(c1)cccc2,-3.77,3.1482,142.197
,C8828,QISTUHYRFABJSG-UHFFFAOYSA-N,NC(=S)c1ccccc1,-0.467293894,2.0211,137.202
,C162,QITBNSBMBQCBAD-UHFFFAOYSA-M,CCCCCCCCCCCCCCCCCC(=O)O,-5.6799998,6.3325,284.477
,C9042,QITKNQKNNKBEPG-UHFFFAOYSA-N,CN1CCN(C1c1ccccc1)C,-0.132217805,1.4382,176.258
,C5118,QITYSCXABSQPCC-UHFFFAOYSA-N,CC1CCC(N1C)CC[N+]1(C)CCCC1C.[I-].I,-3.299420497,0.387,480.21
,C1942,QIVBCDIJIAJPQS-SECBINFHSA-N,OC(c1cccc(n1)C(c1ccccc1)(c1ccccc1)O)(c1ccccc1)c1ccccc1,-7.543134936,5.65,443.536
,C3021,QIWOKEQEGOOGGH-UHFFFAOYSA-N,Clc1cccc2c1nc(OCCCCCN1CSCC1)cc2C.Cl,-5.076234786,5.4919,387.367
,C1325,QJBZDBLBQWFTPZ-UHFFFAOYSA-N,OC(=O)[C@@H](Cc1c[nH]c2c1cccc2)N,-1.23,1.8226,204.225
,C8853,QJCVXZRHWVDFSB-UHFFFAOYSA-N,O=CNNc1ccccc1,-0.441183517,1.8593,136.151
,C2978,QJNSVIYGOVNUCN-UHFFFAOYSA-N,Clc1c[nH]cc1c1cccc(c1[N+](=O)[O-])Cl,-5.134049424,4.4199,257.073
,C4411,QJOAUKVCMSZLOA-UHFFFAOYSA-N,CCN(C(=O)c1ccc[n+](c1)C1N=C(c2c(NC1=O)ccc(c2)Cl)c1ccccc1Cl)CC.[Cl-],-3.798264206,1.3288,517.835
,C6586,QJQNTWZWSVBFOK-UHFFFAOYSA-L,O=C1CCCc2c(N1CC1=NCCN1)cccc2,-2.352736203,1.187,243.304
,C5958,QJTGUFMGQKRIQQ-UHFFFAOYSA-N,CCCCOCCCN1CCCCC1C,-2.744791976,3.0055,213.36
,C5602,QJUNWBNYYHDGAM-UHFFFAOYSA-N,C[N+]1(CCCCC[N+]2(C)CCOCC2)CCOCC1.[Br-].[Br-],-2.974860481,-4.9641,432.235
,C7432,QJVXBRUGKLCUMY-UHFFFAOYSA-N,NCCCNc1cc(OC)cc2c1nccc2.Cl,-1.79225707,3.5794,267.755
,C3789,QKFJKGMPGYROCL-UHFFFAOYSA-N,CC1CCN(CC1)CC(C(OC(=O)c1ccccc1)C)C,-4.257407071,3.5378,289.412
,C6452,QKFLGVMNZNYMOH-UHFFFAOYSA-N,OC(=O)COc1ccccc1C,-2.442417024,1.4584,166.174
,C5278,QKICWELGRMTQCR-UHFFFAOYSA-N,S=C=Nc1ccccc1,-3.177165633,2.4209,135.186
,C2860,QKLSCPPJEVXONT-UHFFFAOYSA-N,NC1CCC2(C1)c1ccccc1C=Cc1c2cccc1.Cl,-5.275305507,5.47,297.822
,C8944,QKLSNEUUBSCPLL-UHFFFAOYSA-N,OP(=O)(O)O.OP(=O)(O)O.CCN(CCCC(Nc1ccnc2c1ccc(c2)Cl)C)CC,-0.314596046,3.0264,515.863
,C880,QKLVXOYMOLDCNG-UHFFFAOYSA-N,COc1cc(nc(n1)C)NS(=O)(=O)c1ccc(cc1)N,-2.54,2.9116,294.33
,C5937,QKRZVQSVSZJPJP-UHFFFAOYSA-N,O=C1OC2(c3c1cccc3)CCCC2,-2.760530479,2.6263,188.222
,C8167,QLFZBRRENHODQH-UHFFFAOYSA-N,CCOc1ccccc1N1C(=O)C2C(C1=O)C1OC2CC1,-1.215320251,1.8171,287.31
,C5870,QLKCCGLEUFIVEC-UHFFFAOYSA-N,O=C1Oc2c(C1(CCC[NH+]1CCOCC1)c1ccccc1)cccc2.[Cl-],-2.79675443,0.1602,373.873
,C7039,QLNJAKWTFVFGEM-UHFFFAOYSA-N,NNc1nc2c(o1)ccc(c2)Cl,-2.062463725,2.5401,183.595
,C4997,QLNWXBAGRTUKKI-UHFFFAOYSA-N,CN(CCCC1(NCCc2c1cccc2)c1ccccc1)C,-3.389818498,3.7465,294.434
,C7469,QLPNZYZWDNTQFD-UHFFFAOYSA-N,CN(CCC(c1ccccc1)(C(=O)N)C)C,-1.758714794,2.0816,220.311
,C8469,QLQCGYKBQYMJFD-UHFFFAOYSA-N,CC(=O)Nc1cccc(c1)O,-0.927812999,1.4236,151.163
,C2590,QLUPQWGVSUSFPS-UHFFFAOYSA-N,OC(=O)C(c1ccc2c(c1)CCc1c2cccc1)C,-5.677663758,3.6403,252.308
,C4380,QLWAWPABINQVLJ-UHFFFAOYSA-N,OCCNc1nc(c(o1)c1ccccc1)c1ccccc1,-3.820299073,3.4858,280.321
,C9094,QMBGXSNFXXGFAX-UHFFFAOYSA-L,CS(=O)CCn1ccnc1[N+](=O)[O-],-0.031496095,1.5587,203.219
,C3254,QMBJSIBWORFWQT-DFXBJWIESA-N,BrC(C(=O)OCC(Cl)(Cl)Cl)C(C)C,-4.800118338,3.3193,312.416
,C3141,QMFPHIRQLOWTFQ-UHFFFAOYSA-N,OC1(OCC[N+](C1)(C)C)c1ccc(cc1)C1(O)OCC[N+](C1)(C)C.[Br-].[Br-],-4.934773982,-5.8844,498.25
,C2359,QMGVPVSNSZLJIA-FVWCLLPLSA-N,O=C1CC[C@]2(C(=C1)C(=C[C@@H]1[C@@H]2CC[C@]2([C@H]1CC[C@]2(OC(=O)C)C(=O)C)C)Cl)C,-6.096970078,4.7517,404.927
,C3302,QMGVPVSNSZLJIA-VKGYTDKUSA-N,OC(=O)C(=O)O.CCCCOc1c(OC)cccc1C(=O)NCCCN(CC)CC,-4.73950821,2.8823,426.504
,C1688,QMHWARSFUCGBJK-UHFFFAOYSA-N,O=C1C[C@@H]2OCC=C3[C@H]4[C@@H]2[C@@H]2N1c1ccccc1[C@]12CCN([C@H]1C4)C3	,-3.33 ,2.0954,334.412
,C621,QMJHHGXCWYZSBV-UHFFFAOYSA-L,O=C1C[C@@H]2OCC=C3[C@H]4[C@H]2[C@H]2N1c1ccccc1[C@@]12CCN([C@H]1C4)C3,-3.3199999,2.0954,334.412
,C6453,QMJPDCOTBLUFHJ-UHFFFAOYSA-N,NC(=Nc1nc2c(s1)cccc2)N,-2.441234541,2.6018,192.241
,C9289,QMMFVYPAHWMCMS-UHFFFAOYSA-N,O=C(OCC[N+](C)(C)C)CCC(=O)OCC[N+](C)(C)C.[I-].[I-],0.26423108,-5.7266,544.208
,C2653,QMMGBBVOMRWEGD-XFULWGLBSA-N,Oc1ccccc1C(=O)N(C1CCCCC1)C1CCCCC1,-5.570165605,4.4998,301.423
,C1494,QMMOXUPEWRXHJS-HWKANZROSA-N,CSC,-0.44999999,0.9792,62.134
,C4901,QMNUDYFKZYBWQX-UHFFFAOYSA-N,C#CC[NH+]1CCc2c3[C@H]1Cc1ccc(c(c1c3ccc2)O)O.[Cl-],-3.454921721,0.0094,327.805
,C876,QMNXJNURJISYMS-UHFFFAOYSA-N,CC/C=C/C,-2.54,1.9725,70.1329
,C8472,QMQBBUPJKANITL-MYXGOWFTSA-N,O=c1nc[nH]c2c1cccc2,-0.925496369,0.9231,146.146
,C8707,QMQBBUPJKANITL-VNJAQMQMSA-N,CN(CCC(=O)c1ccccc1)C,-0.657514262,1.821,177.243
,C3357,QMQFFHSJUJDRPG-UHFFFAOYSA-N,CCC(=O)O[C@](c1ccccc1)([C@@H](CN(C)C)C)Cc1ccccc1.Cl,-4.672025096,5.0775,375.932
,C3760,QMRJLXOCWJOZLU-UHFFFAOYSA-N,CCC(=O)O[C@@](c1ccccc1)([C@H](CN(C)C)C)Cc1ccccc1.Cl,-4.280648857,5.0775,375.932
,C2509,QMSHUERTGDUVNN-GHTWIPNGSA-N,OC(=O)c1c(I)cc(c(c1I)N)I,-5.820681744,3.362,514.826
,C4010,QMSYVGCCVPYKCT-UHFFFAOYSA-N,CC(=O)Nc1ccc2c(c1)cc1c(n2)cccc1,-4.106244205,3.4194,236.269
,C1261,QMTWOKBKQQYFPK-UHFFFAOYSA-N,CN([C@@H]1C(=CC(=O)[C@]2([C@H]1C[C@H]1C(=C2O)C(=O)c2c([C@@]1(C)O)cccc2)O)O)C,-1.42,1.2245,385.41
,C7958,QNBOLLYOPCWBRB-DHZHZOJOSA-N,CCN(CCSC(=N)N)CC.Cl.Cl,-1.410291979,3.3589,248.217
,C6321,QNBVYCDYFJUNLO-UHDJGPCESA-N,CCCC(COC(=O)N)(COC(=O)NC=C)C,-2.522211407,2.849,244.288
,C8527,QNCDQXUEQDTVPX-UHFFFAOYSA-M,CCCO/N=C/c1cccnc1,-0.87495017,1.8421,164.204
,C8648,QNHULNOOWAGJSS-UHFFFAOYSA-N,O=[NH+]/C=c/1\ccccn1C.[I-],-0.740471266,-4.1048,264.064
,C9490,QNIUOGIMJWORNZ-UHFFFAOYSA-N,C[N+](CCCN1CC2CCCC(C1)C2)(C)C.[I-],0.405390448,-0.8534,352.298
,C2712,QNIVIMYXGGFTAK-UHFFFAOYSA-N,CCN(CCOC(=O)C(c1cccc2c1cccc2)Cc1ccco1)CC,-5.494669425,4.6441,365.465
,C483,QNJJECIHYZJXRL-UHFFFAOYSA-N,CCCCOc1ccc(cc1)C(=O)OCCN(CC)CC,-3.8399999,3.3641,293.401
,C7947,QNJVOMNONJWIAE-UHFFFAOYSA-N,CC(CCCC(N)C)C,-1.420958544,2.8602,129.243
,C7080,QNKRHLZUPSSIPN-UHFFFAOYSA-N,Clc1ccccc1CC(N)(C)C.Cl,-2.048226798,4.1221,220.139
,C3630,QNMANLUEFQNQCX-UHFFFAOYSA-N,COc1ccc2c(c1)n(CCN(C)C)c1c2cccc1.Cl,-4.404859349,4.1667,304.814
,C6946,QNNASOAFVHGFQC-UHFFFAOYSA-N,CCC(CC(C)C)(CO)CO,-2.125635762,1.4135,160.254
,C7439,QNPHCSSJLHAKSA-UHFFFAOYSA-N,OCC(=O)c1ccc(c(c1)OC)O,-1.783367523,0.5758,182.173
,C4760,QNPIQYMRMOUVIP-UHFFFAOYSA-M,CCC(=O)C(c1ccccc1)(c1ccccc1)CC[NH+]1CCOCC1.[Cl-],-3.568458471,0.8302,373.916
,C5467,QNRATNLHPGXHMA-XZHTYLCXSA-N,C#CCOC(c1ccccc1)(c1ccccc1)C(=O)OCCN(C)C,-3.059822216,2.6848,337.412
,C9079,QNVJZXLJNDOKRK-MBHUSPCXSA-N,O=C(c1ccccc1)Oc1ccccc1C[N+](C)(C)C.[Br-],-0.070169332,0.116,350.25
,C4059,QNVOFASLYHPBMU-UHFFFAOYSA-N,CCOc1ccc2c(c1)c(ccn2)[C@H]([C@@H]1C[C@@H]2CCN1C[C@@H]2CC)O.Cl,-4.06839906,4.5272,376.92
,C6578,QNVRIHYSUZMSGM-ZCFIWIBFSA-N,OCCCN1CC[C@@]23[C@H]([C@H]1Cc1c3cc(cc1)O)CCCC2.Cl,-2.358511053,3.5729,337.884
,C5948,QNXUUBBKHBYRFW-QWAPGEGQSA-N,CN(c1c(=O)n(Cc2ccccc2)c(=O)n(c1C)C)C,-2.750060565,0.9697,273.33
,C1397,QNZBHXVTDNAOEC-UHFFFAOYSA-N,CCCC[C@H](O)C,-0.88999999,1.5574,102.175
,C2569,QONLGXRPRAIDGI-UHFFFAOYSA-N,ClCCOC1=CC2=C(C=O)C[C@@H]3[C@]([C@]2(CC1)C)(F)[C@@H](O)C[C@]1([C@H]3C[C@@H]2[C@]1(OC(O2)(C)C)C(=O)COC(=O)C)C,-5.715746222,3.9628,569.059
,C3009,QORAVNMWUNPXAO-UHFFFAOYSA-N,CCC(c1cccc2c1cccc2)(C(=O)N)CCN1CCCCC1,-5.102931893,4.4871,324.46
,C8691,QORQZMBCPRBCAB-UHFFFAOYSA-M,CC(NCC(c1ccc2c(c1)cccc2)O)C.Cl,-0.685743389,4.0641,265.778
,C109,QOVNXPCVVNCPQC-UHFFFAOYSA-N,Clc1ccc(c(c1)Cl)c1ccc(cc1Cl)Cl,-6.5100002,5.9672,291.988
,C9212,QOVTVIYTBRHADL-UHFFFAOYSA-N,CCC(C1(CC)C(=O)NC(=NC1=O)[O-])C.[Na+],0.152799861,0.6362,234.227
,C9839,QOWSWEBLNVACCL-UHFFFAOYSA-N,Oc1cccc(c1N)O.Cl,0.791598931,2.0632,161.586
,C4090,QOYHHIBFXOOADH-UHFFFAOYSA-N,ClC(=C(c1cc(N)c(cc1S(=O)(=O)N)S(=O)(=O)N)Cl)Cl,-4.054303291,5.0495,380.656
,C6595,QPADNTZLUBYNEN-UHFFFAOYSA-N,OC(=O)Cc1ccc(cc1)Br,-2.347284598,2.0762,215.044
,C3352,QPBWWFZYFRFGSD-VXQMPNGUSA-N,Fc1ccc(cc1)C(c1ccc(cc1)F)CCCN1CCC2(CC1)C(=O)NCN2c1ccccc1,-4.677227244,5.6371,475.573
,C1196,QPFMBZIOSGYJDE-UHFFFAOYSA-N,C=CCC1(CC)C(=O)NC(=O)NC1=O,-1.61,0.9825,196.203
,C3216,QPFYXYFORQJZEC-FOCLMDBBSA-N,Oc1ccc2c(c1)[C@]13CCCC[C@H]3[C@@H](C2)N(CC1)CCCCC(=O)c1ccccc1,-4.849278473,5.4417,403.556
,C1156,QPGGEKPRGVJKQB-UHFFFAOYSA-N,ClC(C(Cl)Cl)Cl,-1.74,2.5938,167.849
,C5965,QPHRVUMZLUQZGU-UHFFFAOYSA-N,Nc1ccc(c(n1)N)/N=N/c1ccccc1,-2.740045095,3.8238,213.239
,C3432,QPIAAQDLOJNQMP-UHFFFAOYSA-N,CN(CCn1c2ccccc2n(c2c(c1=O)cccc2)C)C,-4.599401079,2.617,295.379
,C3409,QPICYTZKVGZMQW-UHFFFAOYSA-L,Fc1ccc(cc1)C(=O)CCCN1CCN(CC1)c1ccccc1,-4.623349103,3.6137,326.408
,C7597,QPJGOZXYYJDTID-UHFFFAOYSA-N,CCCC(CO)(CO)CC,-1.665349397,1.1675,146.227
,C2064,QPJRVPQZLARJGF-UHFFFAOYSA-N,O=C(c1ccc(cc1)c1ccc(cc1)C(=O)C[n+]1ccc(cc1)C)C[n+]1ccc(cc1)C.[Br-].[Br-],-6.939747521,-1.6808,582.326
,C6296,QPJVMBTYPHYUOC-UHFFFAOYSA-N,Cc1nc(nc(n1)N1CCOCC1)N1CCOCC1,-2.537274336,-0.0168,265.312
,C4269,QPKUCZZRNHHWCJ-UHFFFAOYSA-N,OC(=O)C(c1ccc2c(c1)nc(o2)c1cccc(c1)F)C,-3.905033823,3.822,285.27
,C1131,QPMDKXBBAVQDCB-UHFFFAOYSA-N,COC(=O)c1ccccc1,-1.85,1.4732,136.148
,C3949,QPMZZGUMMBFZBE-UHFFFAOYSA-N,Clc1ccc(cc1)C(=O)OCCCN1CCCCC1C,-4.140594688,3.6992,295.804
,C2748,QPNQBCBHTTYDEN-UHFFFAOYSA-N,CS(=O)(=O)O.CS(=O)(=O)O.CN1CCN(CC1)CCCN1c2ccccc2Sc2c1cc(cc2)S(=O)(=O)N(C)C,-5.445548461,5.3683,638.841
,C5095,QPOFIDVRLWJICD-UHFFFAOYSA-N,CCC(c1ccc(cc1)OCC(CN1CCN(CC1)c1ccccc1)O)O,-3.315926988,2.6948,370.485
,C4521,QPPBRPIAZZHUNT-UHFFFAOYSA-N,CC1N(CCOC1c1ccccc1)Cc1c(=O)n(n(c1C)C)c1ccccc1.Cl,-3.70953234,4.1863,413.94
,C2488,QPRQEDXDYOZYLA-YFKPBYRVSA-N,OC(=O)C(O)C.CC(Cc1ccccc1)NCCC(c1ccccc1)c1ccccc1,-5.849012807,5.2721,419.556
,C762,QPUCQMFFYMYWCS-UHFFFAOYSA-N,Nc1ccc(cc1)S(=O)(=O)Nc1nccc(n1)C,-2.8499999,2.903,264.304
,C1489,QPUYECUOLPXSFR-UHFFFAOYSA-N,CC[C@@H](CO)C,-0.47,1.0248,88.1482
,C5018,QPXULTOHMFSFKO-UHFFFAOYSA-N,CCN(CCn1c(nc2c1c(=O)n(c(=O)n2C)C)C(c1ccccc1)O)CC.Cl,-3.374816276,1.6592,421.921
,C514,QQBPIHBUCMDKFG-GEEYTBSJSA-N,Cc1cccc2c1cccc2,-3.7,3.1482,142.197
,C6702,QQCPOHHISOSHJA-UHFFFAOYSA-N,CCCCC1(CC)C(=O)NC(=O)NC1=O.[Na],-2.271138779,1.5966,235.235
,C8195,QQIPHBFWQUGFGX-UHFFFAOYSA-M,Nc1ccc(c(n1)N)/N=N/c1ccccc1.Cl,-1.196024897,4.6258,249.699
,C6185,QQLKRSPNTCETDX-BTJKTKAUSA-N,CCCCN1CCC(CC1)(O)CCCC.Cl,-2.603144373,3.5435,249.821
,C4577,QQOBRRFOVWGIMD-OJAKKHQRSA-N,C1CCCCN(CCC1)/C=C/C=C/C=[N+]1CCCCCCCC1.[Cl-],-3.676774819,2.0507,352.985
,C2940,QQODLKZGRKWIFG-ZAAXVRCTSA-N,CN(CC1COC2(O1)c1ccccc1C=Cc1c2cccc1)C.OC(=O)/C=C\C(=O)O,-5.178111201,3.0603,423.458
,C5491,QQONPFPTGQHPMA-UHFFFAOYSA-N,CC(=O)O[C@@H]1[C@H](OC(=O)C)[C@H](O[C@H]1n1ncc(=O)[nH]c1=O)COC(=O)C,-3.046240956,-1.7445,371.299
,C62,QQQYQWNSMUHSCK-UHFFFAOYSA-N,N#C[C@@H](c1ccc(c(c1)Oc1ccccc1)F)OC(=O)[C@H]1[C@@H](C1(C)C)C=C(Cl)Cl,-7.3400002,6.31708,434.288
,C1359,QQQYTWIFVNKMRW-UHFFFAOYSA-N,CC=C,-1.08,1.1923,42.0797
,C7002,QQRIRFIZTPHLEM-UHFFFAOYSA-N,COc1cc2oc(=O)[nH]c2cc1Cl,-2.08529493,1.7831,199.591
,C141,QQRSPHJOOXUALR-UHFFFAOYSA-N,O=C(NC(=O)c1c(F)cccc1F)Nc1ccc(cc1)Cl,-6.02,4.044,310.683
,C3703,QQWVCTZTGVJUCK-UHFFFAOYSA-N,Cc1ccc2c(c1)c(N)c1c(n2)cccc1,-4.348732582,3.8598,208.258
,C4840,QQZOPKMRPOGIEB-UHFFFAOYSA-N,C=CCc1cc(OC)c2c(c1OC)OCO2,-3.511639178,2.161,222.237
,C2651,QRCJOCOSPZMDJY-UHFFFAOYSA-N,CCCCCCCOc1ccc(cc1)C(=O)CCN1CCCCC1.Cl,-5.572803163,5.8344,367.953
,C1428,QRDSMFNUWHJJLQ-UHFFFAOYSA-M,CCCCC(=O)C,-0.80000001,1.7656,100.159
,C6911,QRJCDIVJPRWSMH-UHFFFAOYSA-N,CCC(C(CC)C)C(=O)N,-2.145310127,2.2443,143.227
,C3644,QRJOQYLXZPQQMX-FWROMSNXSA-N,C(=C/C=[N+]/1\CCCc2c1cccc2)C=CN1CCCc2c1cccc2.[Cl-].O,-4.392789973,1.8338,382.926
,C6570,QRKPIRZTUBAFCF-UHFFFAOYSA-N,CCCCOc1ccc(cc1OC)CC(=O)NO,-2.362239076,2.3129,253.294
,C4072,QRMNMQPMRJCVMQ-UHFFFAOYSA-N,O[C@@H]1CC[C@]2([C@H](C1)CC[C@@H]1[C@@H]2C(=O)C[C@]2([C@H]1CC[C@@H]2C(=O)COC(=O)C)C)C,-4.061571701,3.3174,390.513
,C5591,QRMPKOFEUHIBNM-ZKCHVHJHSA-N,ClCCN(C(=O)NC1CCCC=C1)N=O,-2.982871483,2.4178,231.679
,C8267,QRMUFSMOMPPWPK-GIDUJCDVSA-N,Clc1cccnc1OCCCNCCSS(=O)(=O)O,-1.119843656,3.1012,326.82
,C338,QROKOTBWFZITJZ-UHFFFAOYSA-N,C[C@@H]1CC[C@H](CC1)C,-4.4699998,2.8326,112.213
,C4850,QROZCFCNYCVEDO-KQYNXXCUSA-N,NC(=S)N/N=C/c1ccnc2c1cccc2Cl,-3.502681457,3.1465,264.734
,C8672,QRQMZZNDJGHPHZ-UHFFFAOYSA-N,CC(=O)Nc1ccccn1,-0.716060794,1.113,136.151
,C8909,QRRDRWCBNYCPJW-UHFFFAOYSA-N,OC[C@H]1O[C@H]([C@@H]([C@@H]1O)O)n1cnc2c1ncnc2NO,-0.358739018,-1.6881,283.241
,C6577,QRRNAEXZIDFDBE-UHFFFAOYSA-N,C=CCN1CCCC1CNC(=O)c1cc(c(cc1OC)N)S(=O)(=O)NC,-2.358852142,2.9474,382.478
,C7555,QRSPJBLLJXVPDD-XFAPPKAWSA-M,Cc1nonc1C(=O)N,-1.704136166,0.1772,127.101
,C4908,QRSSTPPWTDEGJW-UHFFFAOYSA-N,C=CCn1c(=O)oc2c1cc(Cl)cc2,-3.447549765,2.4339,209.629
,C7859,QRUDEWIWKLJBPS-UHFFFAOYSA-N,[O-]C(=O)[C@@H]1N2C(=O)[C@H]([C@H]2SC1(C)C)N1C(=O)[C@H](NC1(C)C)c1ccccc1.[K+],-1.484869033,0.281,427.559
,C9821,QRUSNTDXJQBKBI-UHFFFAOYSA-N,NC(=N)CSS(=O)(=O)O,0.769037893,1.3392,170.211
,C1434,QRWRJDVVXAXGBT-UHFFFAOYSA-N,c1ccc2c(c1)[nH]nn2,-0.77999997,0.9579,119.124
,C9034,QRXWMOHMRWLFEY-UHFFFAOYSA-N,CCC12COP(OC1)OC2,-0.143524064,1.6867,162.124
,C6680,QRZAKQDHEVVFRX-UHFFFAOYSA-N,CC1Cc2c(N1)cccc2,-2.288160546,2.1811,133.19
,C1563,QSACCXVHEVWNMX-UHFFFAOYSA-N,NNC(=O)c1ccncc1,0.0099999998,0.7763,137.139
,C4654,QSFKGMJOKUZAJM-JXMYBXCISA-M,OC(=O)Cc1ccc(cc1)c1ccccc1,-3.634790242,2.9807,212.244
,C6960,QSGAFDSLNHRMIQ-SMBKYJPPSA-N,CC(=O)Nc1ccccc1C(=O)O,-2.114028196,1.4162,179.173
,C6584,QSHDDOUJBYECFT-UHFFFAOYSA-N,CCCC(C(=O)OC1C[C@@H]2CC[C@H](C1)[N+]2(C)C)CCC.[Br-],-2.354468139,0.4786,362.345
,C8862,QSJRZMPYHHJWKX-UHFFFAOYSA-N,OS(=O)(=O)O.O[C@H](c1ccccc1)[C@@H](N)C.O[C@H](c1ccccc1)[C@@H](N)C,-0.429405397,3.963,400.49
,C2186,QSJYRVSERRYRMJ-UHFFFAOYSA-N,[Hg],-6.524162358,-0.0025,200.59
,C3362,QSLMDECMDJKHMQ-UHFFFAOYSA-N,CCCOc1ccc(cc1)C(=O)OCCCN1CCCCC1C,-4.670611734,3.8346,319.438
,C8142,QSNSCYSYFYORTR-UHFFFAOYSA-N,CCOC(=O)C(C(C(F)(F)F)(C(F)(F)F)O)C(=O)C,-1.236005301,1.6104,296.164
,C3739,QSNSPZSXSIXVLS-UHFFFAOYSA-N,CNCCCC12CCC(c3c1cccc3)c1c2cccc1,-4.303874476,4.6023,277.403
,C1177,QSSXJPIWXQTSIX-UHFFFAOYSA-N,Nc1ccc(cc1)Cl,-1.66,2.5034,127.572
,C3109,QSXVNTBKSUOTAI-UHFFFAOYSA-L,CC[NH+](CCOC(=O)c1c2ccccc2nc2c1cccc2)CC.[Cl-],-4.972868951,-0.5265,358.862
,C994,QTALKBKPQXGYGL-UHFFFAOYSA-N,Cc1ccccc1Br,-2.23,2.7575,171.034
,C9377,QTBFPMKWQKYFLR-UHFFFAOYSA-N,O=S(CC[N+](C)(C)C)CC[N+](C)(C)C.[I-].[I-],0.3222106,-4.9788,476.2
,C6026,QTBSBXVTEAMEQO-UHFFFAOYSA-N,Brc1ccc(nc1)OCCCCCNCCSS(=O)(=O)O,-2.697144508,3.9905,399.324
,C1065,QTENRWWVYAAPBI-YCRXJPFRSA-N,ClCC(C)C,-2,1.8812,92.5673
,C1664,QTFFLDZVWHSBKC-PHZXCRFESA-O,CC(=O)O,1.22,0.0909,60.052
,C9018,QTKBGOFNZQTOTA-UHFFFAOYSA-N,OS(=O)(=O)O.OS(=O)(=O)O.OS(=O)(=O)O.OC[C@@H]1O[C@@H](O[C@H]2[C@H](O[C@H]3[C@H](O)[C@@H](O)[C@@H]([C@H]([C@@H]3N=C(N)N)O)N=C(N)N)O[C@H]([C@]2(O)C=O)C)[C@H]([C@@H]([C@H]1O)O)NC.OC[C@@H]1O[C@@H](O[C@H]2[C@H](O[C@H]3[C@H](O)[C@@H](O)[C@@H]([C@H]([C@@H]3N=C(N)N)O)N=C(N)N)O[C@H]([C@]2(O)C=O)C)[C@H]([C@@H]([C@H]1O)O)NC,-0.163571613,-8.654,1457.38
,C9698,QTNVPWDRZGZZMZ-UHFFFAOYSA-N,C[NH+]1C=CN(/C/1=C\[NH+]=O)COCC.[Cl-],0.656242929,-3.5611,220.677
,C2219,QTOMCRXZFDHJOL-UHFFFAOYSA-N,CN(CCCC1c2ccccc2Sc2c1cc(Cl)cc2)C.Br,-6.430479266,6.2364,398.788
,C6999,QTQPVLDZQVPLGV-UHFFFAOYSA-N,N#CCNc1ccccc1C(=O)C,-2.086631657,1.89768,174.199
,C1233,QTRALMGDQMIVFF-UHFFFAOYSA-N,CCCC(CO)(C)C,-1.52,1.805,116.201
,C4325,QTSCXKZZWJJBON-UHFFFAOYSA-N,CN(CC(CN1c2ccccc2S(=O)(=O)c2c1cccc2)C)C,-3.855211214,4.3144,330.444
,C2215,QTSJJDIDTYFLFC-BJMVGYQFSA-N,CCOCCN(C(=O)C(Cl)Cl)Cc1ccc(cc1)Oc1ccc(cc1)[N+](=O)[O-],-6.448866965,5.0791,427.278
,C6718,QTTSJXQSEQDDRB-UHFFFAOYSA-N,CC(NNCc1ccccc1)C.Cl,-2.265142535,3.273,200.708
,C9180,QTWLWIYUQAAJLY-UHFFFAOYSA-N,NC(=S)N/N=C/c1ccncc1,0.105903163,1.3399,180.23
,C9203,QUCYHTNWCIUCRQ-UHFFFAOYSA-N,C[NH+]1CCc2c(C1)ccc(c2O)O.[Cl-],0.146203109,-1.7582,215.677
,C3611,QUDWYFHPNIMBFC-UHFFFAOYSA-N,CCCCOc1nc(OCCCC)cc(c1)C(=O)N(NC)C,-4.426076357,3.0367,309.404
,C3813,QUGNAXFNFWRXGZ-UHFFFAOYSA-N,CC(N(C)C)CCC12CC3CC(C2)CC(C1)C3.Cl,-4.238466411,4.7351,271.869
,C682,QUGUFLJIAFISSW-UHFFFAOYSA-N,C=CCOC(=O)c1ccccc1C(=O)OCC=C,-3.1300001,2.3722,246.259
,C3670,QUIQLMJJIBJLJL-UHFFFAOYSA-N,CCN(CCOC(c1ccc(cc1)C)c1ccccc1)CC.Cl,-4.371328062,5.2448,333.895
,C1080,QUKYIGPTBNWYDQ-UHFFFAOYSA-N,Fc1ccc(cc1)F,-1.97,1.9648,114.093