Name,Compound ID,InChIKey,SMILES,logS,logP,MW
,C3531,KHYQRBMKDBGYKN-UHFFFAOYSA-N,CCCCCCCCCCCC[N+](Cc1ccccc1)(C)C.[Br-],-4.502049988,3.1879,384.437
,C7929,KIBCSYBEMXURBL-UHFFFAOYSA-N,ClCCN(C(=O)NC1CCC(=O)NC1=O)N=O,-1.432113434,0.4431,262.65
,C3468,KIBVWPFAMGQHER-UHFFFAOYSA-N,NC(=O)OCC(c1ccccc1)(COC(=O)Nc1ccccc1)C,-4.565509382,4.0616,328.362
,C7042,KICUGLVMRAJYPD-UHFFFAOYSA-N,CC(=O)NCCSSCCNC(=O)C,-2.061798089,1.4218,236.355
,C2782,KIEDNEWSYUYDSN-UHFFFAOYSA-N,OC(=O)CCC(=O)Nc1cc(c2c1c(C)ccc(c2)C(C)C)C,-5.388884865,4.4079,313.391
,C4494,KIFAGHRXQUQMRU-UHFFFAOYSA-N,Clc1ccc(c(c1)Cl)C1(OC1(Cl)Cl)C(=O)N,-3.730297662,3.5359,300.954
,C955,KIFIYUHFHGSNHL-UHFFFAOYSA-N,O=C1N(OCC1(C)C)Cc1ccccc1Cl,-2.3399999,2.5779,239.698
,C5321,KIJMVZOSUXIDEI-UHFFFAOYSA-N,O=C(c1ccccc1)CCC[NH+]1CCCCC1C.[Cl-],-3.151124914,0.68,281.821
,C7549,KIKLDWULAZATJG-YZZSNFJZSA-M,OC(c1ccccc1)(c1ccccc1)C1CCCCN1.Cl,-1.708113674,4.1954,303.826
,C6961,KIPHMBBVOUZELO-BHRDPBMWSA-N,COc1ncnc(c1)n1nc(cc1OC)C,-2.113966997,0.9879,220.228
,C9010,KISDGNGREAJPQR-OICBGKIFSA-N,COc1ccc2c3c1O[C@@H]1[C@@]43CC[N+]([C@H](C2)[C@@H]4C=C[C@@H]1O)(C)C.[Br-],-0.180863331,-1.3915,394.303
,C3476,KIUPORFCHKEHRJ-UHFFFAOYSA-N,C=CCN1CC[C@@]23[C@H]([C@H]1Cc1c3cc(cc1)OC(=O)N(C)C)CCCC2.Br,-4.556109049,4.8874,435.398
,C1808,KIUPQKLADOGVNI-UHFFFAOYSA-M,OC[C@H]1NC(=O)[C@H](C(C)C)N(c2c3c(C1)c[nH]c3c(cc2)[C@](CCC=C(C)C)(C=C)C)C,-8.947378142,5.2458,437.617
,C4704,KIVUHCNVDWYUNP-UHFFFAOYSA-N,OC(=O)C(c1ccc2c(c1)nc(o2)c1ccccc1)C,-3.603498733,3.6829,267.279
,C9057,KIWUVOGUEXMXSV-UHFFFAOYSA-N,C[N+](CCCCN1CC2CCCC(C1)C2)(C)C.[I-],-0.107507627,-0.4633,366.325
,C130,KIXJXFRXGDBHEY-ZRDIBKRKSA-N,Nc1cc2c(c3c1cccc3)ccc1c2cccc1,-6.1999998,5.3096,243.303
,C1149,KIZLMJCPUZAQPU-UHFFFAOYSA-N,O=C1CSC(=S)N1,-1.77,0.4631,133.192
,C6374,KJCVRFUGPWSIIH-UHFFFAOYSA-N,CC(=O)OCCN1CCS/C/1=N/c1ncc(s1)[N+](=O)[O-],-2.494558407,2.1118,316.357
,C6840,KJFMBFZCATUALV-UHFFFAOYSA-N,COc1c(C)cc(cc1C)CC(N)C.Cl,-2.182274792,3.704,229.746
,C997,KJMZMWZZTSTURU-UHFFFAOYSA-L,Oc1cccc2c1cccc2,-2.22,2.5454,144.17
,C748,KJONHKAYOJNZEC-UHFFFAOYSA-N,Oc1ccc(cc1)C1(OC(=O)c2c1cccc2)c1ccc(cc1)O,-2.9000001,3.5601,318.323
,C5689,KJPKPBMWHKBKHG-UHFFFAOYSA-N,C[N+]1(CCC[N+]2(C)CCCC2)CCCC1.[I-].[I-],-2.917283849,-4.2171,466.184
,C493,KJRRTHHNKJBVBO-AATRIKPKSA-N,O=C1CN=C(c2c(N1)ccc(c2)[N+](=O)[O-])c1ccccc1,-3.8,2.4811,281.266
,C4075,KJSWIAZTEMACJB-UHFFFAOYSA-N,O=C(C(c1ccccc1)CN1CCCCC1)c1ccccc1,-4.060934731,4.0769,293.403
,C6429,KJTKQMGARPGBEV-UHFFFAOYSA-N,OC(=O)/C=C/c1ccccc1Cl,-2.457368476,2.4378,182.604
,C1788,KJUHIXIWKSVBKB-UHFFFAOYSA-N,CCC(CCC(C[NH2+]C(CCCCC([NH2+]CC(CCC(CC)C)C)C)C)C)C.[Cl-].[Cl-],-9.42136727,-0.6166,469.658
,C2193,KJVQYDYPDFFJMP-UHFFFAOYSA-N,Clc1ccccc1CCNC1CCC(CC1)NCCc1ccccc1Cl.CC(=O)O.CC(=O)O,-6.507434937,6.2326,511.481
,C6798,KKAJSJJFBSOMGS-UHFFFAOYSA-N,Cc1nc2ccccc2c(=O)n1c1ccccc1C.Cl,-2.214479009,3.8045,286.756
,C6941,KKBASWQAOUMPNG-UHFFFAOYSA-N,Nc1ccc(cc1)S(=O)(=O)Nc1scc(n1)C,-2.129266039,3.5695,269.343
,C8694,KKEAXAUOTXQKNV-UHFFFAOYSA-N,Nc1ccc2c(c1)[n+](C)c1c(c2)ccc(c1)N.[Cl-],-0.684802225,0.1483,259.734
,C2453,KKEGNVXSQNSYDV-UHFFFAOYSA-L,COc1c(OC)cc(cc1OC)C(=O)OC1N=C(c2ccccc2)c2c(NC1=O)ccc(c2)Cl,-5.907538714,3.912,480.897
,C4356,KKEYFWRCBNTPAC-UHFFFAOYSA-N,CCCCCOc1ccc(cc1Cl)CC(=O)NO,-3.839762619,3.3478,271.74
,C7409,KKHGNHUXFIKANY-GPPWNDLUSA-M,CC1CCN(CC1)/C=C/C=C/C=[N+]/1\CCC(CC1)C.CC1CCN(CC1)/C=C/C=C/C=[N+]/1\CCC(CC1)C.[Cl-].[Cl-].O.O.O,-1.81318896,0.2113,647.803
,C4099,KKHORYRSUULMHO-UHFFFAOYSA-N,OC(=O)c1ccc(cc1)C(=O)O,-4.044362034,1.083,166.131
,C8750,KKHPNPMTPORSQE-UHFFFAOYSA-N,CO[C@H]1C=CC2=CCN3[C@]2(C1)C1=C(CC3)COC(=C1)[O-].[Na+],-0.579863017,1.8824,295.309
,C4990,KKIYXTAGNVTYLV-UHFFFAOYSA-N,CCCC1(CC[NH+](CC)CC)C(=O)Oc2c1cc(C)cc2.[Cl-],-3.392479792,-0.7293,325.873
,C4159,KKVYOWPPMNSLCP-UHFFFAOYSA-N,CN(CCOC(c1ccc(cc1)Cl)(c1ccccc1)C)C,-3.9983308,4.1817,303.826
,C1161,KKVZAVRSVHUSPL-GQCTYLIASA-N,O=C1C=C[C@](C=C1)(O)c1cc(O)ccc1O,-1.73,0.9805,218.205
,C8007,KKWUACQXLWHLCX-UHFFFAOYSA-N,S=C(N1CCOCC1)SSC(=S)N1CCOCC1,-1.352838812,1.4778,324.506
,C7138,KLBGDUZWAJNQRX-UHFFFAOYSA-N,O=C/C=C/c1ccccc1OC,-2.005898736,1.9073,162.185
,C3308,KLBQZWRITKRQQV-UHFFFAOYSA-N,CCCCCCCCCCCCCC[NH3+].[Cl-],-4.724687995,0.9334,249.864
,C5654,KLCAYWXSRJHEOT-UHFFFAOYSA-N,CCCCNc1ccccc1OC,-2.943009769,2.9802,179.259
,C2508,KLFOHIJBCWYYDM-UHFFFAOYSA-N,CSc1ccc2c(c1)N(CCC1CCCCN1C)c1c(S2)cccc1,-5.820685746,5.8885,370.575
,C8788,KLGMSAOQDHLCOS-UHFFFAOYSA-N,CCC(=O)OCN1C2CCC1CN(C2)C,-0.53314529,0.5513,212.289
,C7533,KLIHWYNSISMOMR-QMMMGPOBSA-N,OCC(COc1ccccc1C(=O)CC)O,-1.717275616,1.0113,224.253
,C888,KLIWBPMQXVJEAN-UHFFFAOYSA-N,CCOC(=O)N(C(=O)CSP(=S)(OCC)OCC)C,-2.52,3.2826,329.373
,C1312,KLJMYYFCWBVKEE-UHFFFAOYSA-N,CC[C@@](C(C)(C)C)(O)C,-1.27,2.1935,130.228
,C6741,KLJWTLFECGZQCL-UHFFFAOYSA-N,OCC(COc1ccccc1CC)O,-2.251408128,0.981,196.243
,C5767,KLLDCZLNAVUXAE-UHFFFAOYSA-N,CCCCOc1ccc(cc1)CC(=O)O,-2.871441577,2.4926,208.254
,C7247,KLLYWRUTRAFSJT-UHFFFAOYSA-M,O=c1cccc2c1nc1ccccc1[nH]2,-1.925176651,2.0763,196.205
,C6105,KLOHDWPABZXLGI-YWUHCJSESA-M,NC(=O)OCCCOc1ccccc1C,-2.657897257,2.5595,209.242
,C9859,KLOIYEQEVSIOOO-UHFFFAOYSA-N,[O-]C(=O)C#CC(=O)O.[K+],0.817739461,-2.1757,152.147
,C8949,KLOXEYMSPNBMHD-UHFFFAOYSA-N,N[C@H](c1ccccc1)C(=O)N[C@@H]1C(=O)N2[C@@H]1SC([C@@H]2C(=O)[O-])(C)C.[Na+],-0.307375596,0.0125,371.387
,C4493,KLPVACBCXCZPDM-UHFFFAOYSA-N,CCOC(=O)COc1ccc2c(c1)oc(=O)c(c2C)CCN(CC)CC,-3.730406094,2.9276,361.432
,C3920,KLPWJLBORRMFGK-UHFFFAOYSA-N,[O-][N+](=O)c1ccc(cc1)c1nc2c(o1)cccc2,-4.160497459,3.9262,240.214
,C5149,KLSJWNVTNUYHDU-UHFFFAOYSA-N,CC(C1(OC(=O)C)C(=O)NC(=O)NC1=O)c1ccccc1,-3.278118188,1.1156,290.271
,C5590,KLSLAJCPPHOEAM-UHFFFAOYSA-N,CCc1c(C)[nH]c2c1C(=O)C(CC2)CN1CCOCC1,-2.983170987,1.9007,276.374
,C1609,KLTTUAXOCHIICS-WXIWBVQFSA-N,Nc1n[nH]cn1,0.51999998,-0.0319,84.08
,C3653,KLYLIFFVIQXKAZ-UHFFFAOYSA-N,CCN(CCOC(=O)COc1c(ccc(c1C(=O)OC)C)C(C)C)CC,-4.386760474,3.1688,365.464
,C5411,KLZXYEFMBIATFN-UHFFFAOYSA-N,[O-][N+](=O)c1ccc(o1)/C=N/NC(=O)C[NH2+]CC=C.[O-]C(=O)C,-3.096606957,-0.9424,312.279
,C5281,KMAQZIILEGKYQZ-UHFFFAOYSA-N,CCCCC(COC(=O)N)(COC(=O)NCC)C,-3.17498166,3.1155,260.33
,C3251,KMBNZJHARRJKGJ-UHFFFAOYSA-N,Cc1ccc2c(c1)c(C)cc(n2)OCCCCCN1CSCC1,-4.801487807,4.3449,330.488
,C788,KMDLOETUWUPGMB-GSTUHXICSA-N,Clc1cccc(c1)[N+](=O)[O-],-2.77,2.7714,157.554
,C4506,KMFNIYQGYUDSDZ-BTJKTKAUSA-N,CC[NH+](CC(C1(c2ccccc2)C(=O)Oc2c1cccc2)C)CC.[Cl-],-3.723027506,-0.5435,359.89
,C1775,KMGARVOVYXNAOF-UHFFFAOYSA-N,Cc1cc(ccc1N/N=C/1\C(=O)C=Cc2c1cccc2)/N=N/c1ccccc1C,-9.733343394,6.2039,380.442
,C7816,KMGBZBJJOKUPIA-UHFFFAOYSA-N,[O-]C(=O)/C=C\C(=O)O.NCC([NH+]1CCCCC1)c1cccs1,-1.518568508,1.4633,326.411
,C3374,KMNDTYWRUVCTHV-UHFFFAOYSA-N,CN1CCC(CC1)n1[nH]c(c(c1=O)Cc1ccccc1)c1ccccc1,-4.659636824,3.6388,347.453
,C733,KMNOADCGBSOLGM-UHFFFAOYSA-N,CCCCI,-2.96,2.2215,184.019
,C3186,KMOLOOJMKSFREQ-UHFFFAOYSA-M,Brc1c(C)c(Br)c(c(c1O)O)Br,-4.880605418,3.6937,360.825
,C3091,KMPWYEUPVWOPIM-CFGMGRTJSA-N,CCC(=O)C(c1ccccc1)(c1ccccc1)CCCN1CCCC1,-5.001934407,4.7657,335.482
,C9582,KMRNTNDWADEIIX-UHFFFAOYSA-N,Oc1cc(cc(c1)[N+](C)(C)C)[N+](C)(C)C.[Cl-].[Cl-],0.550952236,-4.2064,281.222
,C703,KMRUMDCKCWFUAW-UHFFFAOYSA-N,C=C[C@@H]1CN2CC[C@H]1C[C@@H]2[C@H](c1ccnc2c1cccc2)O,-3.0699999,3.1025,294.391
,C1496,KMSNYNIWEORQDJ-UHFFFAOYSA-N,OC(=O)CCI,-0.43000001,0.8961,199.975
,C9724,KMTDMTZBNYGUNX-UHFFFAOYSA-N,NC(=NCCCSS(=O)(=O)O)N,0.671070231,1.6673,213.278
,C8834,KMUNXDCQPABTSC-UHFFFAOYSA-N,O=C1CCCS1,-0.461467917,1.04,102.155
,C1333,KNAHARQHSZJURB-UHFFFAOYSA-N,OCc1ccc(cc1)C,-1.2,1.4873,122.164
,C5695,KNBRWWCHBRQLNY-UHFFFAOYSA-N,CCNc1nc(CC)nc(n1)OC,-2.914259775,0.9474,182.223
,C1021,KNCYXPMJDCCGSJ-UHFFFAOYSA-N,CCCc1cc(=O)[nH]c(=S)[nH]1,-2.1500001,1.385,170.232
,C3433,KNHUKKLJHYUCFP-UHFFFAOYSA-N,S=C(N1CCCCC1)SSC(=S)N1CCCCC1,-4.597619849,3.7852,320.561
,C9744,KNIVGGRCJWRCDV-UHFFFAOYSA-N,O=C1CCCC(=O)N1,0.690768944,0.1419,113.115
,C4795,KNKRKFALVUDBJE-GSVOUGTGSA-N,CCOC(=O)C(Oc1ccc(cc1)Cl)(C)C,-3.545464275,3.0605,242.699
,C2911,KNMOHCLEINXVBG-HWKANZROSA-N,CC(N(C(C)C)CCC(c1ccccc1)(c1ccccc1)C(=O)N)C,-5.211488923,4.6672,338.486
,C1197,KNOZCKSSLOTBPA-UHFFFAOYSA-N,ClC[C@H](Cl)C,-1.6,1.8525,112.986
,C7281,KNPHMCQIKGHPRU-UHFFFAOYSA-N,C/C=C/CC1(CC)C(=O)NC(=O)NC1=O,-1.90606038,1.3726,210.23
,C6536,KNVIWKFOCCEBOC-UHFFFAOYSA-N,CCC(=O)C1C(=O)c2c(C1=O)cccc2,-2.384634431,1.6609,202.206
,C9586,KNVQTRVKSOEHPU-UHFFFAOYSA-N,Oc1cccc(c1)[N+](C)(C)C.[I-],0.554207488,-1.4071,279.118
,C5799,KNZADIMHVBBPOA-UHFFFAOYSA-N,CN1CCN(CC1)CN1C(=O)NC(C1=O)(c1ccccc1)c1ccccc1,-2.850673656,1.8294,364.441
,C1270,KOCYTWBTXZOUFS-UHFFFAOYSA-N,CC(=O)Nc1ccccc1Cl,-1.4,2.3714,169.608
,C4230,KODJEKMBSLNJIH-UHFFFAOYSA-N,CCCCOc1ccc(cc1)C(=O)CCN1CCCCC1.Cl,-3.940182121,4.6641,325.873
,C1569,KOGNWJDRKVGHOP-UHFFFAOYSA-N,Cc1cnc2c(n1)ncnc2,0.059999999,0.7282,146.149
,C4273,KOKSXPBEMRYMNU-UHFFFAOYSA-N,CC(NC(c1ccccc1)Cc1ccccc1)C.Cl,-3.902806675,5.1613,275.816
,C9644,KOLACBWIZQJURK-DUXPYHPUSA-N,OC(C([NH2+]C)C)c1ccc(cc1)N.[Cl-],0.611556774,-2.5309,216.708
,C4447,KOLZZKRWBHRCBJ-UHFFFAOYSA-N,NC1=NCC(O1)CSc1ccc(c(c1)Cl)Cl,-3.766041628,2.9349,277.17
,C5459,KOOGJYYOMPUGCW-UHFFFAOYSA-N,CN1CCC2CC1N(C2)C(=O)/C=C/c1ccc(s1)[N+](=O)[O-],-3.064412791,2.5786,307.368
,C9090,KOPIRKLPVHIQML-UHFFFAOYSA-N,NCCCCCF,-0.043197109,1.7852,105.154
,C5354,KORVTMHAROWYHH-JXMROGBWSA-N,CCN(CC(=O)Nc1c(C)cc(cc1C)C)CC.Cl,-3.130300225,3.7671,284.825
,C8561,KOXGZZKWEVONRZ-UHFFFAOYSA-N,OCCN1CCOC1=Nc1ncc(s1)[N+](=O)[O-],-0.833289926,0.8244,258.254
,C6169,KOXNRJHZWXSKMF-UHFFFAOYSA-N,CN1CC2CCC(C1)N2C(=O)/C=C/c1ccccc1,-2.61295161,1.8806,256.343
,C9048,KPCLDXRCQCEGKE-UHFFFAOYSA-M,COc1cc(OC)ccc1C(C([NH3+])C)O.[Cl-],-0.126787572,-2.6284,247.719
,C7686,KPHWPUGNDIVLNH-UHFFFAOYSA-M,OC(=O)c1cnc2n(c1=O)C(C)CCC2,-1.605866483,0.8388,208.214
,C4509,KPKQWXGFEKRQQA-UHFFFAOYSA-N,O=C(C(c1ccccc1)(c1ccccc1)O)OC1CC2CCC(C1)[N+]2(C)Cc1ccccc1.[Br-],-3.720685755,1.7687,522.473
,C6957,KPMKNHGAPDCYLP-UHFFFAOYSA-N,[O-]C(=O)Cc1ccccc1Nc1c(Cl)cccc1Cl.[Na+],-2.117891517,3.1024,318.13
,C5277,KPRMTLXLUPSXMR-UHFFFAOYSA-N,c1ccc(cc1)c1[nH]nc(n1)c1ccccc1,-3.177591462,3.1387,221.257
,C7728,KPSPULPPMWHXGE-UHFFFAOYSA-N,ClCCN(C(=O)NCc1cnc(nc1N)C)N=O.Cl,-1.576886754,2.5731,309.152
,C7696,KPSRODZRAIWAKH-UHFFFAOYSA-N,Clc1cccc(c1)P(=O)(O)O,-1.599664328,1.143,192.537
,C6706,KPSSIOMAKSHJJG-UHFFFAOYSA-N,Nc1cccc(c1)C(=O)Nc1ccccc1,-2.26994694,3.1753,212.247
,C3891,KPUOOXMQSSEHNF-UHFFFAOYSA-L,OC(=O)C(Oc1ccc(cc1)C1CC1(Cl)Cl)(C)C,-4.179638328,3.5898,289.154
,C1510,KPVMGWQGPJULFL-UHFFFAOYSA-N,OCC(C)(C)C,-0.40000001,1.0248,88.1482
,C9278,KPWDGTGXUYRARH-UHFFFAOYSA-N,CC[N+](CCOC(=O)C1CC2CC[N+]1(C)CC2=O)(CC)C.[I-].[I-],0.25787527,-5.2093,552.23
,C6418,KPXAEWKEEYFYFK-UHFFFAOYSA-N,C1CCN(CC1)C1=CCCCC1,-2.460065682,2.8681,165.275
,C8979,KPYSYYIEGFHWSV-UHFFFAOYSA-N,OCC(Cl)(Cl)Cl,-0.253691061,1.3489,149.404
,C4109,KQBFUDNJKCZEDQ-UHFFFAOYSA-N,CCC(=O)OC1(CCN(CC1C)C)C1CCCCC1.Cl,-4.040209486,3.9702,303.868
,C7136,KQFSLSHCXZRAJU-UHFFFAOYSA-N,NCC(c1ccc(cc1)Cl)CC(=O)O,-2.009578971,2.5573,213.661
,C42,KQKPFRSPSRPDEB-UHFFFAOYSA-N,Clc1cc(Cl)c(cc1c1c(Cl)cc(c(c1Cl)Cl)Cl)Cl,-7.9200001,7.9274,395.323
,C4813,KQLYMYILTPTBLL-UHFFFAOYSA-N,CCCCC(COC(=O)N)(COC(=O)NCC#C)CC,-3.529583095,3.1189,284.351
,C8237,KQMVAGISDHMXJJ-UHFFFAOYSA-N,CNS(=O)(=O)Cc1ccc2c(c1)c(CCN(C)C)c[nH]2,-1.140810713,2.7929,295.4
,C5564,KQNPFQTWMSNSAP-UHFFFAOYSA-N,ClCCN(CCCOc1ccccc1)CC.Cl,-3.005050985,3.8182,278.218
,C3552,KQNVLZYYDYGQMY-LBCIAOCBSA-M,COc1cc(O)c2c(c1)occ(c2=O)c1ccc(cc1)O,-4.48138473,2.8798,284.263
,C1581,KQNZDYYTLMIZCT-KQPMLPITSA-N,CC(C(=O)O)C,0.28,0.727,88.1051
,C2060,KQPCUJSGFVRMQT-UHFFFAOYSA-N,C=CC1C[N+]2(CCC(C)C)CCC1C[C@@H]2[C@H](c1ccnc2c1cc(OC)cc2)O.[Br-],-6.9636335,1.6969,475.462
,C2594,KQPKPCNLIDLUMF-QMMMGPOBSA-N,O[C@@H]1C[C@@H]2[C@@H](C1)/C=C/CCC[C@@H](OC(=O)/C=C/[C@H]2O)C,-5.669571013,1.9624,280.359
,C5397,KQPKPCNLIDLUMF-UHFFFAOYSA-N,NC(=O)C(c1cccc2c1cccc2)(CCN1CCOCC1)C,-3.103793976,2.9433,312.406
,C944,KQPYUDDGWXQXHS-UHFFFAOYSA-N,CCC[C@@H](C1(CC=C)C(=O)NC(=O)NC1=O)C,-2.3599999,2.0087,238.283
,C6137,KQSRXDXJGUJRKE-UHFFFAOYSA-L,CCCC(C1(CC=C)C(=O)NC(=O)NC1=O)C,-2.63673766,2.0087,238.283
,C7795,KQUFNWNGQCSKFH-UHFFFAOYSA-N,O=C1C=CC(=O)c2c1c(O)ccc2,-1.531581172,1.3274,174.153
,C7735,KQUQZJSQMSHWHP-SCLAZZCHSA-N,[O-]C(=O)c1ccccc1c1c2cc(Br)c(=O)cc2oc2c1cc(Br)c(c2[Hg])[O-].[Na+].[Na+].O,-1.574994922,3.7049,751.659
,C1978,KQVQBPSOWVZVQD-UHFFFAOYSA-M,CN1CCC(CC1)OC(=O)C1CCc2c1ccc(c2)C1CCCCC1.Cl,-7.267807629,5.1414,377.948
,C9224,KQXDHUJYNAXLNZ-XQSDOZFQSA-N,O[C@H]1C=C[C@@H]2[C@@]34[C@H]1Oc1c4c(C[C@H]2[N+](CC3)(C)C)ccc1O.[Br-],0.176530328,-1.6945,380.276
,C8185,KQZFABSTXSNEQH-UHFFFAOYSA-N,CC[N+](CCOC(=O)C(c1ccccc1)(c1ccccc1)O)(CC)C.[Cl-],-1.202638889,-0.0439,377.905
,C1762,KRABLEGNCHMGDR-UHFFFAOYSA-N,CC[C@H]([C@H]1O[C@]2(C=C[C@H]([C@@]3(O2)CC[C@@](O3)(C)[C@H]2CC[C@]([C@@H](O2)C)(O)CC)O)[C@@H](C[C@@H]1C)C)C(=O)[C@H]([C@H]([C@@H]([C@@H]1O[C@H](CC[C@@H]1C)[C@H](C(=O)O)CC)C)O)C,-10.00995023,6.188,750.999
,C6156,KRAQAOBRFYZSEU-UHFFFAOYSA-N,Ic1ccc(cc1)S(=O)(=O)N,-2.622738731,2.7197,283.087
,C6229,KRBFPTXUUCFGIA-FMQUCBEESA-N,OCCn1c(=O)n(c2ccccc2)c(c(c1=O)N(C)C)C,-2.573783657,0.3659,289.33
,C7505,KRGNLCAXPGOHQH-FNORWQNLSA-N,CN(C1CCN(C1=O)c1ccccc1)C.[O-][N+](=O)c1cc([N+](=O)[O-])c(c(c1)[N+](=O)[O-])O,-1.733233353,4.1049,433.372
,C3604,KRIMXCDMVRMCTC-UHFFFAOYSA-N,CN(Cc1ccc(cc1)NC(=O)C)/N=N/c1ccc(cc1)C(=O)O,-4.440706844,3.5469,326.35
,C6864,KRIOVPPHQSLHCZ-UHFFFAOYSA-N,N#C/C(=C\c1ccco1)/C(=O)OC,-2.167736733,1.35958,177.157
,C1358,KRKNYBCHXYNGOX-UHFFFAOYSA-N,CCCCC(O)(C)C,-1.08,1.9475,116.201
,C1135,KRMDCWKBEZIMAB-UHFFFAOYSA-N,CCC(=O)c1ccccc1,-1.83,2.2793,134.175
,C1604,KRMIFNSJPWRCNE-UHFFFAOYSA-N,OC(=O)C(CC(=O)O)(CC(=O)O)O,0.50999999,-1.2485,192.124
,C342,KRNDIPHOJLIHRI-UHFFFAOYSA-N,CN(CCC=C1c2ccccc2CCc2c1cccc2)C,-4.46,4.1686,277.403
,C5594,KRPAJLYSLFNDOA-UHFFFAOYSA-N,OC(=O)C(=O)[O-].CC[NH+]1CCC(C1)OC(=O)Nc1ccccc1C,-2.97915065,0.6837,338.356
,C6629,KRQAMFQCSAJCRH-UHFFFAOYSA-N,N#Cc1cc(nnc1NCCN1CCOCC1)c1ccccc1,-2.32732102,1.77028,309.366
,C7894,KRQCFJVRGKISQO-UHFFFAOYSA-N,OC(COc1ccccc1C)COC(=O)N,-1.460558628,1.5303,225.241
,C4966,KRQWFVYRQYTWRH-UHFFFAOYSA-N,COc1cc(cc(c1OC)OC)C(=O)OCCCN(CCN(CCCOC(=O)c1cc(OC)c(c(c1)OC)OC)C)C,-3.404351808,3.3958,592.678
,C5819,KRRMOOMFGMSJHJ-UHFFFAOYSA-N,CCCCCc1[nH]c2c(n1)n(C)c(=O)n(c2=O)C,-2.837362936,0.693,250.297
,C8720,KRSJARZIUCHGQS-UHFFFAOYSA-N,CC(=O)Nc1occ(n1)C,-0.638712439,1.0144,140.14
,C2284,KRSJNPQCDCZRDP-UHFFFAOYSA-N,ClCCN(c1ccc(cc1)OC(=O)c1ccccc1C)CCCl,-6.261299857,4.4982,352.255
,C3647,KRTPZDITOONUEW-UHFFFAOYSA-N,OCCN(c1nc(c(o1)c1ccccc1)c1ccccc1)C,-4.389688696,3.4371,294.348
,C8934,KRTSDMXIXPKRQR-WAYWQWQTSA-N,CCCC(COC(=O)N(C(Cc1ccccc1)C)C)(CO)C,-0.326383879,3.4847,307.428
,C2567,KRVVZPXPQUPXJE-UHFFFAOYSA-N,CCC(C(=O)OCC(Br)(Br)Br)CC,-5.716895887,3.8043,380.9
,C1622,KRWCIQBJZIARTN-UHFFFAOYSA-N,CNC(=O)/C=C(\OP(=O)(OC)OC)/C,0.64999998,1.4446,223.164
,C8668,KRXOSDJLAUJPIO-UHFFFAOYSA-M,CCn1c(=O)n(C)c2c(c1=O)n(C)cn2,-0.718968916,-0.5464,208.217
,C2134,KRYLGICXMCHFHB-UHFFFAOYSA-N,CCCCOc1ccc(cc1)OCC(=O)N(c1cccc(c1)OCC)CC[NH+](CC)CC.[Cl-],-6.708185268,0.6049,479.052
,C3064,KRZXDTYOZAQOGL-UHFFFAOYSA-N,CCCCCCCCCCCCOC(=O)CO[NH3+].[Cl-],-5.02546442,-0.372,295.846
,C6068,KSCFJBIXMNOVSH-UHFFFAOYSA-N,CCCCCC(COC(=O)N)(COC(=O)N)C,-2.674639049,3.1642,246.303
,C4250,KSCFJBIXMNOVSH-ZCFIWIBFSA-N,COc1cc(ccc1OCc1ccccc1)Cc1cnc(nc1N)N,-3.924572435,3.9818,336.388
,C9188,KSEBMYQBYZTDHS-HWKANZROSA-N,OCC(Cn1cnc2c1c(=O)n(C)c(=O)n2C)O,0.117190105,-2.2131,254.243
,C1538,KSEYRUGYKHXGFW-UHFFFAOYSA-N,OC[C@@H](Cn1cnc2c1c(=O)n(C)c(=O)n2C)O,-0.17,-2.2131,254.243
,C7825,KSHPBBBLYZZQBO-UHFFFAOYSA-N,COc1cc(/C=C/C(=O)O)ccc1O,-1.512243585,1.4986,194.184
,C5517,KSLSOBUAIFEGLT-UHFFFAOYSA-N,C=CCN1CCCC1CNC(=O)c1cc2n[nH]nc2cc1OC,-3.028566584,1.6755,315.37
,C4933,KSMAGQUYOIHWFS-UHFFFAOYSA-N,CC(Oc1ccc(cc1)C(=O)CCN1CCCCC1)C.Cl,-3.433247922,4.2724,311.847
,C8200,KSODCNQBMBVLAJ-FERBBOLQSA-M,C#CC(c1ccccc1)(O)C,-1.192665559,1.5273,146.186
,C3534,KSOHFVDMHBOJLF-UHFFFAOYSA-N,CC(C1=NCCN1)Oc1c(Cl)cccc1Cl,-4.497432395,2.5268,259.132
,C2680,KSPQDMRTZZYQLM-UHFFFAOYSA-N,ClCCN(c1cc(ccc1C)C(=O)N[C@H](C(=O)[O-])Cc1ccc(cc1)O)CCCl.[Na+],-5.530458668,2.4665,461.314
,C2096,KSRLIXGNPXAZHD-HAZZGOGXSA-M,CC(Cc1ccccc1)NCC1CCC(CC1)CNC(Cc1ccccc1)C.Cl.Cl,-6.826017086,7.6202,451.515
,C8661,KSUUMAWCGDNLFK-UHFFFAOYSA-N,OC(=O)CNC(=O)c1ccco1,-0.727176793,0.4849,169.135
,C5033,KSVBDCVNOLOLNW-UHFFFAOYSA-N,O=C1CN(C(=N1)[O-])/N=C/c1ccc(o1)c1ccc(cc1)[N+](=O)[O-].[Na+],-3.362295243,1.7141,336.235
,C5954,KSZBMSJSJFZGRF-UHFFFAOYSA-N,C=CCC(C(=O)NC(=O)N)C(C)C,-2.746867628,2.1208,184.236
,C6545,KTFGFGGLCMGYTP-UHFFFAOYSA-N,CN1CCCC1c1c[nH]c2c1cc(Cl)cc2,-2.375366775,3.5259,234.725
,C1986,KTFGSVWWMYCIJB-UHFFFAOYSA-N,OC(=O)Cc1cc(I)c(c(c1)I)Oc1ccc(c(c1)C(C)C)O,-7.23256858,5.1442,538.115
,C7335,KTFMYEBLIXUAHY-HDPAMLMOSA-N,O=C(Nc1ccccc1)CCC(=O)O,-1.861129981,1.5629,193.199
,C3313,KTGWBBOJAGDSHN-UHFFFAOYSA-N,CN(CCC=C1c2ccsc2SCc2c1cccc2)C.Cl,-4.715238062,5.5392,337.93
,C2301,KTHVBAZBLKXIHZ-UHFFFAOYSA-N,CC/C(=N\C(=O)C)/C(c1ccccc1)(c1ccccc1)CC(N(C)C)C.Cl,-6.212922206,5.5124,386.958
,C6253,KTJSVELYMZTQJB-UHFFFAOYSA-N,CC(C1(CC(=C)Br)C(=O)NC(=O)NC1=O)C,-2.564234881,1.9511,289.126
,C4161,KTKDYVVUGTXLJK-UHFFFAOYSA-N,CCN1CCCC(C1)OC(=O)C(c1ccccc1)c1ccccc1,-3.996437559,3.7839,323.429
,C8097,KTNPVRSKFWZJEZ-UHFFFAOYSA-N,CCc1[nH]c2c(n1)n(C)c(=O)n(c2=O)C,-1.273201528,-0.4773,208.217
,C8204,KTNROWWHOBZQGK-UHFFFAOYSA-N,CCCN(C(=O)N)CCC,-1.181295863,1.8874,144.215
,C7178,KTORKRBAIRTBCP-UHFFFAOYSA-N,NN1C(C)(C)CCCC1(C)C,-1.973775834,2.5414,156.268
,C9712,KTTKGQINVKPHLY-DOCRCCHOSA-N,CCNCC(c1cccc(c1)O)O.Cl,0.662155556,2.228,217.693
,C6727,KTUFKADDDORSSI-UHFFFAOYSA-N,OC(=O)c1nsc2c1cccc2,-2.259444101,1.9945,179.196
,C6711,KTUXEHNBBHDTPH-UHFFFAOYSA-N,CN([C@@H]1C(=O)C(=C([C@@]2([C@H]1Cc1c(C2=O)c(O)c2c(c1C)cccc2O)O)O)C(=O)N)C,-2.268114812,1.1561,426.419
,C5161,KTVKGXZZBQCBGD-UHFFFAOYSA-M,CCCC(=O)Nc1ccc(c(c1)C(=O)C)OCC(CNC(C)C)O.Cl,-3.270550753,3.6314,372.887
,C2799,KTXUOWUHFLBZPW-UHFFFAOYSA-N,COc1ccc2c(c1)c(cc[nH+]2)C(Cc1[nH+]ccc2c1cccc2)O.[Cl-].[Cl-],-5.352778432,-3.0861,403.302
,C3211,KUAZQDVKQLNFPE-UHFFFAOYSA-N,CCCC(=O)Nc1c(I)cc(c(c1I)CC(C(=O)[O-])CC)I.[Na+],-4.85763654,3.6306,663.004
,C156,KUBIYDREAGSHMB-UHFFFAOYSA-N,Clc1cccc(c1)c1cccc(c1)Cl,-5.8000002,4.6604,223.098
,C474,KUCQYCKVKVOKAY-OTVXOJSOSA-N,CN(C(=S)SSC(=S)N(C)C)C,-3.9000001,2.0608,240.433
,C3348,KUDPDOZAPFSKPG-UHFFFAOYSA-N,CN(CCC1(CC(c2c1cccc2)C)c1ccccc1)C.Cl,-4.683951269,5.2336,315.88
,C147,KUEUWHJGRZKESU-UHFFFAOYSA-N,Clc1ccc(cc1)[C@@H]1CC[C@@H](CC1)C1=C(O)C(=O)c2c(C1=O)cccc2,-5.9299998,5.5051,366.837
,C2727,KUFFULVDNCHOFZ-UHFFFAOYSA-N,CCCCCCCCCCCCCCCNCCSS(=O)(=O)O,-5.465013216,6.6749,367.611
,C3930,KUFUKKLCQUTJHH-UHFFFAOYSA-N,O=C(c1cccnc1)OCC(COC(=O)c1cccnc1)(COC(=O)c1cccnc1)COC(=O)c1cccnc1,-4.15297952,2.9808,556.523
,C1335,KUINUAAHDPVJRS-WJDWOHSUSA-N,Cc1ccc(c(c1)C)O,-1.1900001,2.009,122.164
,C4034,KULNOANNPOGHQK-UHFFFAOYSA-N,COc1ccc(c(c1)OCC(CN1CCN(CC1)c1ccc(c(c1)C)C)O)C(=O)C.Cl.Cl,-4.08516804,4.6834,485.444
,C5058,KUMCLYGZVRXJMG-UHFFFAOYSA-N,OC(=O)Cc1ccc2c(c1)s/c(=C\1/C=CC=C(C1=O)C)/[nH]2,-3.342631635,2.3735,299.344
,C7585,KUMMBDBTERQYCG-UHFFFAOYSA-N,OCCNc1ccccc1C(=O)O,-1.67595956,0.862,181.189
,C8282,KUUWPXMCNKAGMJ-UHFFFAOYSA-N,CCC1(CC)C(=O)NC(=O)NC1=S,-1.105685885,1.6172,200.258
,C8891,KUVIULQEHSCUHY-XYWKZLDCSA-N,OCc1cc(C)cc(c1O)CO,-0.387586113,0.6852,168.19
,C4712,KUZRSCRQPYFUKP-GHXNOFRVSA-N,CCCCCCCSCCCN1CCSC1.Cl,-3.596187692,4.8263,297.951
,C2471,KVAWWXSLBDVXHJ-UHFFFAOYSA-N,CCC(=O)O[C@@]1([C@@H](C)C[C@@H]2[C@]1(C)C[C@H](O)[C@]1([C@H]2CCC2=CC(=O)C=C[C@]12C)Cl)C(=O)COC(=O)CC,-5.879920163,4.0868,521.042
,C7242,KVBWBCRPWVKFQT-UHFFFAOYSA-N,CN(/N=C\C(=O)c1ccc(cc1)Cl)C,-1.927384794,2.0701,210.66
,C5353,KVCJCEKJKGLBOK-UHFFFAOYSA-N,O=c1[nH]c2c(o1)cc(c(c2)Cl)Br,-3.130438675,2.537,248.461
,C638,KVFJBIQWENJTDM-UHFFFAOYSA-N,Ic1cccc(c1)C(=O)O,-3.27,1.9894,248.018
,C5781,KVGGQNNGLOIZSK-UHFFFAOYSA-N,COc1cc(cc(c1OCCN1CCOCC1)OC)C(=O)c1ccc(cc1)Cl,-2.863708238,3.2371,405.872
,C48,KVGVQTOQSNJTJI-UHFFFAOYSA-N,c1ccc2c(c1)ccc1c2cc2cccc3c2c1CC3,-7.8499999,5.2448,254.325
,C7776,KVHHOCOKABIPJM-UHFFFAOYSA-M,O=[As]c1ccc(c(c1)N)O,-1.546126114,0.2306,199.039
,C8743,KVHHQGIIZCJATJ-UHFFFAOYSA-N,O=c1[nH]c(=O)c2c(n1)[nH][nH]n2,-0.589481806,-1.6655,153.099