Name,Compound ID,InChIKey,SMILES,logS,logP,MW
,C6940,IHKNYPYJYZUMMA-UHFFFAOYSA-N,CC(=O)Nc1occ(n1)c1ccccc1,-2.129717813,2.373,202.209
,C8465,IHKPROKNRABKBI-UHFFFAOYSA-N,CC(C#CC(O)(C)C)(O)C,-0.930437151,0.5316,142.196
,C4720,IHLIKQHIMNCJHD-UHFFFAOYSA-N,O=C(C(c1ccccc1)CN1CCCC1)c1ccccc1.Cl,-3.592594971,4.4888,315.837
,C8496,IHONYPFTXGQWAX-UHFFFAOYSA-N,COc1ccc(cc1C(C([NH+](C)C)C)O)OC.[Cl-],-0.901475661,-2.7258,275.772
,C4691,IHPDTPWNFBQHEB-OKILXGFUSA-N,COc1cccc(c1)C1CCC2N(C1)CCCC2.Cl,-3.611758768,4.167,281.821
,C8409,IHQKEDIOMGYHEB-UHFFFAOYSA-M,COc1ccccc1OCC(=O)O,-0.972239553,1.1586,182.173
,C1097,IHTKSVYIDWAIPB-UHFFFAOYSA-N,O[C@H]([C@@H](c1ccccc1)O)c1ccccc1,-1.9299999,2.4536,214.26
,C9935,IHTNSEAIRWVJJI-UHFFFAOYSA-N,[O-][As](=O)(C)C.[Na+],1.096967018,0.5492,159.979
,C6081,IHTUGUQGWPOOJG-SOFGYWHQSA-N,CCCC(COC(=O)NC(=O)C)(COC(=O)NC(=O)C)CC,-2.667026218,2.5101,316.35
,C2320,IHUNBGSDBOWDMA-AQFIFDHZSA-N,CCCCC(Oc1ccc(cc1)C(=O)OCCCN1CCCCC1C)C,-6.172533262,5.0033,361.518
,C7912,IHWQUKMGROAAEH-UHFFFAOYSA-N,CN(/N=C/CCCC)C=O,-1.444484804,1.8865,142.199
,C2151,IHXNRXNBUPOFAS-UHFFFAOYSA-N,COc1cc(C)c(c(c1C)C)/C=C/C(=C/C=C/C(=C/C(=O)O)/C)/C,-6.651070519,5.167,326.429
,C5576,IHXOCADAVBSZJN-UHFFFAOYSA-L,Nc1oc2c(n1)cc(c(c2)Cl)Cl,-2.993675881,3.298,203.025
,C7692,IIBYAHWJQTYFKB-UHFFFAOYSA-N,CCC(C(COC(=O)N)COC(=O)N)C,-1.600972916,2.2399,218.25
,C2342,IIEMWZNXXFGMCU-UHFFFAOYSA-N,CC[N+](C1c2ccccc2c2c1cccc2)(CCCCCC[N+](C1c2ccccc2c2c1cccc2)(CC)CC)CC.[Br-].[Br-],-6.120925776,3.808,718.646
,C2406,IIEWJVIFRVWJOD-UHFFFAOYSA-N,Clc1ccc(cc1)C(=O)NCCc1ccc(cc1)OC(C(=O)O)(C)C,-6.00789975,3.9454,361.819
,C5728,IIGBCTZAXJGMSA-UHFFFAOYSA-N,CC(NCC(c1ccc(c(c1)Cl)Cl)O)C.Cl,-2.896735339,4.2177,284.61
,C388,IIIDAJOFIHRHPY-UHFFFAOYSA-M,CCC1CCCCC1,-4.25,2.9767,112.213
,C3144,IINRZEIPFQHEAP-UHFFFAOYSA-N,C[NH+]1CCc2c(C1CCc1ccc(cc1)Cl)cc(c(c2)C)C.[Br-],-4.926110401,2.2747,394.776
,C7368,IISBACLAFKSPIT-UHFFFAOYSA-N,[O-][Cl](=O)(=O)=O.CC(CN(CC(C)C)/C=C/C=C/C=[N+](CC(C)C)CC(C)C)C,-1.833313231,5.2799,421.014
,C7371,IIUOQVUAQZTVHA-UHFFFAOYSA-N,OC(=O)C1(N)CCCCCC1,-1.832876475,1.823,157.21
,C771,IIYFAKIEWZDVMP-UHFFFAOYSA-N,CC(c1ccc(cc1)O)(c1ccc(cc1)O)C,-2.8199999,3.4237,228.286
,C8266,IIYKUJVECNNTEY-LREBCSMRSA-N,OS(=O)(=O)SCCNC1CCCCCC1,-1.120462533,3.3065,253.382
,C1929,IIYWDRMGBBSUQS-KTKRTIGZSA-N,CCCCCCCCCCCCC,-7.593585331,5.3173,184.361
,C2525,IJDNQMDRQITEOD-UHFFFAOYSA-N,O[C@H]([C@H](C(=O)O)O)C(=O)O.CN(CCCN1c2ccccc2C(c2c1cccc2)(C)C)C,-5.789963876,2.3581,444.521
,C6661,IJFPVINAQGWBRJ-UHFFFAOYSA-N,N#C/N=[N+](/c1ccccc1)\[O-],-2.304161103,2.28488,147.134
,C867,IJFXRHURBJZNAO-UHFFFAOYSA-N,CCCC,-2.5699999,1.8064,58.1222
,C100,IJHNSHDBIRRJRN-UHFFFAOYSA-N,CC(CCCCCOC(=O)c1ccccc1C(=O)OCCCCCC(C)C)C,-6.6399999,6.433,390.556
,C8090,IJKAOMCJQZGZPQ-UHFFFAOYSA-N,Oc1cccc(c1)C(=O)O,-1.27992482,1.0904,138.121
,C8355,IJLARBWXSSXHNL-UHFFFAOYSA-N,CN(CCC(c1ccccn1)c1ccccc1)C,-1.028082953,3.1652,240.343
,C7059,IJLPAGBWPSGGDR-CNNNCVBWSA-N,CN(CCOC(=O)C(c1ccccc1)(c1ccccc1)O)C.Cl,-2.056294887,2.8293,335.825
,C2207,IJOIPPSHQCEBDH-UHFFFAOYSA-N,COc1cc2CCN(C(c2cc1OC)CCc1cc(Cl)c(cc1Cl)Cl)C,-6.471659417,5.7637,414.753
,C3075,IJRVQAXSAHHCNH-UHFFFAOYSA-M,COc1cc(CCN2CC[C@@]34[C@H]([C@H]2Cc2c4cc(cc2)O)CCCC3)cc(c1OC)OC.Cl,-5.015896948,5.459,474.032
,C9091,IJTLAEIFTBOYHR-UHFFFAOYSA-M,C1CN2CCO[Si](O1)(OCC2)c1ccccc1,-0.040455485,0.1494,251.354
,C9887,IJTPQQVCKPZIMV-UHFFFAOYSA-N,CCCC[N+](C)(C)C.[OH-],0.875381674,1.3159,133.232
,C6023,IJVCSMSMFSCRME-KBQPJGBKSA-N,CCOCC(OC(=O)CCC(=O)[O-])COc1ccccc1.[Na+],-2.700064264,0.5438,318.298
,C2675,IJWNKPCTJRPNLS-UHFFFAOYSA-N,OC(=O)CCC(=O)c1ccc(c(c1)Cl)C1CCCCC1,-5.537372161,4.4352,294.773
,C7871,IJXHLVMUNBOGRR-UHFFFAOYSA-N,O[C@H]1CC[C@@H]2[C@@]34[C@H]1Oc1c4c(C[C@H]2N(CC3)C)ccc1O,-1.479013036,1.36,287.354
,C5125,IKALZAKZWHFNIC-JIZZDEOASA-L,O=C(Nc1ccc(cc1)I)NC=CP(=O)(N1CC1)N1CC1,-3.295022194,3.0479,418.17
,C605,IKCLCGXPQILATA-UHFFFAOYSA-N,CCCCCCCCC(=O)OC,-3.3800001,2.91,172.265
,C9732,IKCYQNSSQXAQHC-UHFFFAOYSA-N,[O-]C(=O)C[C@@H](C(=O)[O-])N.[K+].[K+],0.679263973,-3.0961,209.283
,C1112,IKECULIHBUCAKR-UHFFFAOYSA-N,OC(=O)c1ccccc1Cl,-1.89,2.0382,156.566
,C9196,IKFBPFGUINLYQI-UHFFFAOYSA-N,CCOC(=O)CON.Cl,0.130271111,0.9421,155.58
,C1503,IKFBXKNSWSOXBJ-UHFFFAOYSA-N,CC(C(O)(C)C)C,-0.41,1.4133,102.175
,C6371,IKGDGLRBESDXOX-UHFFFAOYSA-N,CCNC1C2CCC(C1c1ccccc1)C2,-2.496484167,3.5691,215.334
,C6364,IKGXLCMLVINENI-UHFFFAOYSA-M,Brc1ccc(nc1)OCCCN1CSCC1.Cl,-2.497641094,3.3592,339.68
,C5972,IKHUSJCGKQISRF-UHFFFAOYSA-N,CN1OCc2c(C1)ccc(c2)Cl,-2.735038735,2.1549,183.635
,C2074,IKJZVLQZWUDHFV-UHFFFAOYSA-N,COc1cc(C[N+]2(CCOCCC3CCC4CC3C4(C)C)CCOCC2)c(cc1OC)Br.[Br-],-6.889545925,2.2551,591.416
,C6246,IKLQOPICWGDGGF-UHFFFAOYSA-N,CN1C2CCC1CN(C2)C(=O)c1ccc(cc1)Cl,-2.566716429,2.1344,264.751
,C7183,IKMPWMZBZSAONZ-UHFFFAOYSA-N,CCc1cnc(n1C)[N+](=O)[O-],-1.970663286,1.4139,155.155
,C3406,IKQRPFTXKQQLJF-IAHYZSEUSA-N,Ic1ccc(nc1)OCCCCCCN1CSCC1.Cl,-4.62788984,4.3716,428.76
,C2730,IKVCCOSAYBITFB-UHFFFAOYSA-N,Clc1ccc2c(c1)C(=NCC(=S)N2CC(F)(F)F)c1ccccc1F,-5.461347199,4.5268,386.794
,C9127,IKVPKVIYHXZKMK-UHFFFAOYSA-N,CN([C@@H]1C(=O)C(=C([C@@]2([C@H]1C[C@H]1C(=C(O)c3c([C@@]1(C)O)cccc3O)C2=O)O)O)C(=O)NCN1CCCC1)C,0.022009623,0.642,527.566
,C8349,IKVPZYAOGOJTLK-UHFFFAOYSA-N,NNc1nnc(c2c1cccc2)NN.Cl,-1.033170918,2.5496,226.666
,C7783,IKXBIIHSAINQQA-UHFFFAOYSA-N,CN1CCOC(C1)(OCC#C)c1ccccc1.Cl,-1.540398399,2.1911,267.751
,C5687,IKYIXZSIKOYSLD-UHFFFAOYSA-N,O=C1NC(=O)NC(=O)C1(c1ccccc1)c1ccccc1,-2.918294744,1.9963,280.278
,C1936,ILAJRTDNJJZPMG-UHFFFAOYSA-N,CCC(c1cccc2c1cccc2)(CC[NH+](CC=C(C)C)CC=C(C)C)C#N.[Cl-],-7.55696867,2.22258,411.022
,C2566,ILBINFKDNNTWSC-UHFFFAOYSA-N,OC(=O)C(c1ccccc1)Cc1cc(I)c(c(c1)I)O,-5.717848796,4.0123,494.063
,C8259,ILDYYABRUBWZPB-UHFFFAOYSA-N,CC(=O)CNc1ccccc1C(=O)N,-1.124226861,1.5597,192.214
,C3857,ILEDWLMCKZNDJK-UHFFFAOYSA-N,CCCCOc1nc(OCCCC)cc(c1)C(=O)NO,-4.200352408,2.9493,282.335
,C1017,ILEKKZUHFYUQIE-BTJKTKAUSA-N,c1ccc2=NN=C=c2c1,-2.1600001,-1.0104,116.12
,C7487,ILFPCMXTASDZKM-YFKPBYRVSA-N,O=c1ccc2c(o1)cc(c(c2)O)O,-1.744940752,1.2042,178.142
,C2408,ILKJAFIWWBXGDU-MOGDOJJUSA-N,OC(=O)/C=C\C(=O)O.CCC(=O)c1ccc2c(c1)N(CC(N(C)C)C)c1c(S2)cccc1,-6.002439162,4.6089,456.555
,C9496,ILMZTINRCDWCLG-UHFFFAOYSA-N,OC(=O)[C@H]1CCC(=O)C1=C,0.408417543,0.6063,140.137
,C2650,ILNSRQWEUTXPPQ-UHFFFAOYSA-N,CC(=O)OCC(=O)[C@@]12OC3(O[C@@H]1C[C@@H]1[C@]2(C)C[C@H](O)[C@]2([C@H]1CCC1=CC(=O)C=C[C@]21C)F)CCCC3,-5.577679366,3.5238,502.572
,C5729,ILPUOPPYSQEBNJ-UHFFFAOYSA-N,Cc1oc2c(c1)c(O)c1c(c2OCC(C[NH2+]CC(C)C)O)occc1=O.[Cl-],-2.896430157,-1.4837,397.85
,C8144,ILTQGUCGNHVYOU-UHFFFAOYSA-N,CSc1c(Cl)nc(nc1N1CCNCC1)NC,-1.233286479,1.77,273.786
,C7150,ILUJQPXNXACGAN-UHFFFAOYSA-N,OC(=O)C(Oc1ccccc1)(C)C,-1.998083442,1.9286,180.2
,C3413,IMAGLCGCHKGGLR-UHFFFAOYSA-M,CC=C(c1ccc(cc1)OCC(CN1CCN(CC1)c1ccccc1)O)C.Cl.Cl,-4.617574933,5.2786,439.418
,C7862,IMFACGCPASFAPR-UHFFFAOYSA-N,COc1ccccc1C(=O)O,-1.483299098,1.3934,152.147
,C9608,IMHQERYPRJWDBY-UHFFFAOYSA-N,O=c1[nH]c(=O)[nH]c(c1)C(=O)[O-].OCC[N+](C)(C)C,0.58626115,-2.8884,259.259
,C688,IMIDOCRTMDIQIJ-UHFFFAOYSA-N,CCCCN(CCCC)CCCC,-3.1199999,3.6887,185.349
,C2952,IMLAIXAZMVDRGA-UHFFFAOYSA-N,COc1c2occc(c2c(=O)c2c1oc(c2)C)OCC(C[NH+](C(C)C)Cc1ccccc1)O.[Cl-],-5.159482644,0.045,487.972
,C939,IMLSAISZLJGWPP-UHFFFAOYSA-N,CNC(=O)Oc1ccc(c(c1)C)N(C)C,-2.3599999,2.1701,208.257
,C9044,IMMGGYQQWAHCLJ-UHFFFAOYSA-N,NCCOc1ccccc1,-0.12869699,1.7244,137.179
,C8110,IMNFDUFMRHMDMM-UHFFFAOYSA-N,C1SCCS1,-1.259344091,1.4239,106.21
,C7464,IMNYNMDGLNYDIY-SRJUEMFDSA-N,C#CCOc1ccc(cc1)CC(=O)NO,-1.761976516,1.1374,205.21
,C328,IMONTRJLAWHYGT-ZCPXKWAGSA-N,CCCCCCC,-4.5300002,2.9767,100.202
,C2184,IMPKVMRTXBRHRB-JDCCYXBGSA-N,C[NH+](CC/C=C\1/c2ccccc2C=Cc2c1cc(Cl)cc2)C.[Cl-],-6.530846062,0.7941,346.293
,C271,IMPPGHMHELILKG-UHFFFAOYSA-N,C#C[C@@]1(CC[C@@H]2[C@]1(C)CC[C@H]1[C@H]2CCC2=CC(=O)CC[C@H]12)OC(=O)C,-4.79,4.0633,340.456
,C1541,IMQPGJKTCYTPEI-UHFFFAOYSA-N,O[C@@H]1C[C@H](O)[C@H]([C@@H]([C@H]1O)O)O,-0.17,-2.8054,164.156
,C8107,IMQSIXYSKPIGPD-YQRUMEKGSA-N,CCOc1ccc(cc1)N,-1.261657225,2.2487,137.179
,C4203,IMSSROKUHAOUJS-MJCUULBUSA-N,CCCCCCCC(=O)c1ccc(cc1)N,-3.962696177,4.3932,219.323
,C3078,IMTAXJFNNPTBMW-UHFFFAOYSA-N,CCCCC[C@H]([C@@H]1[C@@H](O)C[C@@H](O)C[C@@H](O)C[C@@H](O)C[C@@H](O)C[C@@H](O)C[C@H](O)/C(=C/C=C/C=C/C=C/C=C/[C@@H]([C@H](OC1=O)C)O)/C)O,-5.013360155,1.888,654.828
,C2404,IMTFBWVBFMZNED-UHFFFAOYSA-N,C#C[C@]1(O)CC[C@@H]2[C@]1(C)CC[C@H]1[C@H]2CCc2c1ccc(c2)OC,-6.014852237,3.9156,310.43
,C2243,IMWZZHHPURKASS-UHFFFAOYSA-N,Brc1ccc2c(c1)c(=O)n(c(n2)C)CCCNC1CCCCC1.Cl,-6.369836164,4.9727,414.768
,C3827,IMYZQPCYWPFTAG-UHFFFAOYSA-N,C[NH+](CCCC1(OCCc2c1cccc2)c1ccccc1)C.[Cl-],-4.228730244,-0.5684,331.88
,C4999,IMZMKUWMOSJXDT-UHFFFAOYSA-N,O=C1NCC(O1)COc1cc(C)cc(c1)C,-3.387192015,2.1194,221.252
,C6855,INDBQLZJXZLFIT-UHFFFAOYSA-N,CNC1(C)C2CCC(C1(C)C)C2,-2.173105827,2.8115,167.291
,C5049,INEZXIFHJBJBRB-UHFFFAOYSA-N,OC(COc1cccc2c1c(=O)cc(o2)C(=O)O)COc1cccc2c1c(=O)cc(o2)C(=O)O,-3.348369775,2.1145,468.367
,C6660,INHPISRLZMRZBK-UHFFFAOYSA-N,NCCCC(Nc1cc(OC)cc2c1nccc2)C,-2.304650307,3.556,259.347
,C3900,INISTDXBRIBGOC-BJKOFHAPSA-N,COc1ccc(cc1)C1SCCCS1,-4.175807408,3.5639,226.358
,C3358,INOCOTXEWBJWKF-UHFFFAOYSA-N,COc1cc2CC[NH+](C(c2cc1OC)CCc1cccc(c1)[N+](=O)[O-])C.[Cl-],-4.671534463,1.4531,392.876
,C38,INOVPKZAEASFME-UHFFFAOYSA-N,N#C[C@@H](c1cccc(c1)Oc1ccccc1)OC(=O)[C@@H](C(C)C)Nc1ccc(cc1Cl)C(F)(F)F,-8,7.46868,502.913
,C2767,INPYZYGYRQOSMA-UHFFFAOYSA-N,COc1ccc(cc1OC)C(=O)Nc1cccc2c1CCN(C2)CCc1ccccc1,-5.41551692,4.5678,416.512
,C6816,INQOMBQAUSQDDS-UHFFFAOYSA-N,CC(NC(=O)c1ccccc1)C,-2.195740034,2.2157,163.216
,C7546,INSXAGGBFMXUIH-UHFFFAOYSA-N,C=CCN1CC2CCC(C1)N2C(=O)CC,-1.71017364,1.1334,208.3
,C1371,INUNXTSAACVKJS-NRFANRHFSA-N,CI,-1,1.0512,141.939
,C8415,INUNXTSAACVKJS-OAQYLSRUSA-N,CS(=O)(=O)O.CNCC(c1cccc(c1)NS(=O)(=O)C)O,-0.968519948,2.4404,340.416
,C2968,INVGWHRKADIJHF-UHFFFAOYSA-N,C[C@H](C(C(=O)N1CCCC1)(c1ccccc1)c1ccccc1)CN1CCOCC1,-5.145180917,3.4392,392.534
,C2969,INVVMIXYILXINW-UHFFFAOYSA-N,C[C@@H](C(C(=O)N1CCCC1)(c1ccccc1)c1ccccc1)CN1CCOCC1,-5.144717505,3.4392,392.534
,C2996,INWLQCZOYSRPNW-CYBMUJFWSA-N,C[n+]1cc2c3OCOc3ccc2c2c1c1cc3OCOc3cc1cc2,-5.111811964,3.4281,332.329
,C8476,INWLQCZOYSRPNW-UHFFFAOYSA-N,Cc1cc(=O)n2c(n1)nc[nH]2,-0.921226828,-0.274,150.138
,C6091,INWLQCZOYSRPNW-ZDUSSCGKSA-N,CN1CCCC[C@@H]1C(=O)Nc1c(C)cccc1C,-2.662394829,2.7371,246.348
,C7774,INWYTYJMFXUTQY-UHFFFAOYSA-N,CN1CCCCC1C(=O)Nc1c(C)cccc1C,-1.546461578,2.7371,246.348
,C1218,INYFNNKRGLROQV-UHFFFAOYSA-N,CN1CCCC[C@H]1C(=O)Nc1c(C)cccc1C,-1.55,2.7371,246.348
,C6204,INYYVPJSBIVGPH-QHRIQVFBSA-N,CCN(CCOc1ccccc1C)CC.Cl,-2.594597458,3.5176,243.773
,C9076,IOBTZSDTPDLZMK-UHFFFAOYSA-N,S=C1NC2C(N1)CCCC2,-0.076540364,1.4329,156.249
,C7458,IOFXEUZPIIUQAG-UHFFFAOYSA-M,COC1=C[C@@H]2[C@@H]3Cc4c([C@@]2(CC1=O)CCN3C)c(O)c(cc4)OC,-1.76836856,1.956,329.39
,C3655,IOJUPLGTWVMSFF-UHFFFAOYSA-N,CC(C1(OC(=O)C(C)C)C(=O)NC(=O)NC1=O)c1ccccc1,-4.385604923,1.7517,318.325
,C7737,IOKHTIHZBIJKOX-UHFFFAOYSA-N,C[N+]1(CCOCC1)CCC(c1cccs1)(c1ccccc1)O.[I-],-1.574259524,-0.1863,445.358
,C1240,IONYGGJUUJFXJK-UHFFFAOYSA-N,c1ccc2c(c1)scn2,-1.5,2.2963,135.186
,C5926,IOPYAHCREUTVQD-UHFFFAOYSA-M,C[NH+](C(CN1C(=O)C(C)Oc2c1cc(cc2)[N+](=O)[O-])C)C.[Cl-],-2.765409213,-2.1661,329.779
,C3208,IOQDMVNNGGHLEA-UHFFFAOYSA-N,Clc1c(Cl)c(C(=O)O)c(c(c1Cl)Cl)Cl,-4.865802916,4.6518,294.347
,C9445,IOQGBHYJEGYACJ-UHFFFAOYSA-M,C(=CC=[N+]1CCCC1)C=CN1CCCC1.[O-][Cl](=O)(=O)=O,0.370332402,2.1402,304.77
,C3970,IOQOLGUXWSBWHR-UHFFFAOYSA-N,C[NH+](CCOC(c1cccc2c1cccc2)c1ccccc1)C.[Cl-],-4.12563246,0.0943,341.874
,C8111,IOQPZZOEVPZRBK-UHFFFAOYSA-N,Cc1n(CCCCCC[N+](C)(C)C)ccc2c1nc1c2cccc1.[Br-].Br,-1.257882665,2.7266,485.299
,C5217,IOUDZAFBPDDAMK-AATRIKPKSA-N,Cc1ccc(cc1)N1N=C(CC1=O)C,-3.229365863,1.6082,188.226
,C792,IOULHECGFCVGKE-UHFFFAOYSA-N,CCCCCCCCN,-2.75,3.0059,129.243
,C7202,IOUNQDKNJZEDEP-UHFFFAOYSA-N,OC(=O)/C=C/c1ccccc1F,-1.95805187,1.9235,166.149
,C7094,IOVDQEIIMOZNNA-MHKBYHAFSA-N,OCC(COc1cccc2c1NCCC2)O,-2.039204095,0.9147,223.268
,C210,IOWQDCBHHGWKSQ-UHFFFAOYSA-N,CCOP(=S)(SCn1c(=O)oc2c1ccc(c2)Cl)OCC,-5.23,4.8867,367.809
,C2310,IOYQQPACAXCJIN-UHFFFAOYSA-N,OCCN1CCN(CC1)CC/C=C\1/c2ccccc2Sc2c1cc(cc2)C(F)(F)F.Cl.Cl,-6.192164539,6.0815,507.439
,C6996,IPCSVZSSVZVIGE-UHFFFAOYSA-N,CC(CC(COC(=O)N)(COC(=O)N)C)C,-2.089550013,2.63,232.277
,C6847,IPDLHOGKOAVQTF-UHFFFAOYSA-N,O=C(CN1CCN(CC1)C(=O)C)NN=Cc1ccc(o1)[N+](=O)[O-],-2.177179321,0.5919,323.305
,C92,IPDQDGCZABYZKF-UHFFFAOYSA-N,CCCCCCCCCCCCCCCC(=O)O,-6.8099999,5.5523,256.424
,C8582,IPEHBUMCGVEMRF-UHFFFAOYSA-N,CC(=O)COc1ccc(cc1)[As](=O)(O)O,-0.811575006,-0.7846,274.102
,C6004,IPFUISOJBWATGQ-UHFFFAOYSA-M,S=C1NC(=S)NC1(c1ccccc1)c1ccccc1,-2.71119681,3.3929,284.399
,C1391,IPHNUCBDRMZDOH-ALUHPYBCSA-O,NC(=O)c1cnccn1,-0.91000003,0.2758,123.113
,C7345,IPIMRNFGYPQKAM-UHFFFAOYSA-N,CSCCC1(C(CCC)C)C(=O)[N-]C(=S)NC1=O.[Na+],-1.846507852,2.1364,310.411
,C8570,IPIWKLKSFLQQEA-UHFFFAOYSA-L,O=[NH+]/C=C/1\N(COC2CCCCCC2)C=C[NH+]1C.[Cl-],-0.822401518,-1.8582,288.794
,C7558,IPMHCUCDBKKMAQ-UHFFFAOYSA-N,COc1cc(C)c(cc1CC(N)C)OC.Cl,-1.702068385,3.4042,245.746
,C9393,IPMKEQXUUSDMIW-UHFFFAOYSA-N,CCCC[N+](CCOCC[N+](CCCC)(CC)CC)(C)C.[Br-].[Br-],0.335024432,-2.4558,462.347
,C8119,IPOLRLFQPJCFET-UHFFFAOYSA-N,CC1C2CCC(C1(C)N)C2,-1.252232795,2.4701,139.238
,C7678,IPPMKVWUPMOGFL-UHFFFAOYSA-N,CNC(=O)OCC(COC(=O)N)(CC)C,-1.61060646,1.9452,218.25
,C7344,IPSVAUIEEPSJRZ-UHFFFAOYSA-N,CC(C(COc1ccccc1C)O)O,-1.848756018,1.1155,196.243
,C1827,IPVVZYZTTKHXKK-UHFFFAOYSA-N,OC(=O)c1cc2ccccc2c(c1O)Cc1c(O)c(cc2c1cccc2)C(=O)O.CCN(CCCC(Nc1cc(OC)cc2c1nccc2)C)CC,-8.686103474,8.6302,703.823
,C5592,IPWBFGUBXWMIPR-UHFFFAOYSA-N,OCCOCCN1CCN(CC1)C(c1ccc(cc1)Cl)c1ccccc1.Cl,-2.98278568,3.7337,411.365
,C2876,IPWGSXZCDPTDEH-UHFFFAOYSA-N,OC(C(Cl)(Cl)Cl)OC(COc1ccccc1C)COC(C(Cl)(Cl)Cl)O,-5.256893502,4.1528,476.992
,C810,IPWKIXLWTCNBKN-UHFFFAOYSA-N,Fc1ccccc1Br,-2.7,2.5882,174.998
,C5579,IPXDFCRSXWUBFA-UHFFFAOYSA-N,CN(CCOc1cc(C)c(cc1C(C)C)OC(=O)C)C.Cl,-2.990261872,3.7861,315.836
,C7553,IQCHKMQERZPOIJ-UHFFFAOYSA-N,ClCC(Cn1c(C)ncc1[N+](=O)[O-])O,-1.705294189,1.2226,219.626
,C3990,IQCZDPRPOLRNQX-UHFFFAOYSA-N,CCCCSCCCCCCCN1CCSC1.Cl,-4.115716338,5.2164,311.978
,C1568,IQFVPQOLBLOTPF-HKXUKFGYSA-L,Cc1cnc2c(n1)cncn2,0.059999999,0.7282,146.149
,C2438,IQHTWFLGOPQPHD-XJXJHPFJSA-M,CCCCSc1ccc(cc1)C(c1ccccc1)SCCN(C)C.Cl,-5.94260939,6.765,396.053
,C8618,IQIDGOOBRWIRLZ-UHFFFAOYSA-N,Nc1c(/N=N/c2ccc(cc2)c2ccc(cc2)/N=N/c2cc(c3c(c2N)cccc3)S(=O)(=O)[O-])cc(c2c1cccc2)S(=O)(=O)[O-].[Na+].[Na+],-0.77856538,10.7874,696.663
,C2685,IQLOSBYZJUGSKB-UHFFFAOYSA-N,C=CC1C[N+]2(CCC1C[C@@H]2[C@H](c1ccnc2c1cc(OC)cc2)O)C(C)C.[Cl-],-5.518905351,1.0592,402.957
,C3277,IQNOBTBYHWYITG-UHFFFAOYSA-N,CN(Cc1ccccc1)CC(=O)N1C(C)(C)CCCC1(C)C,-4.763833111,3.626,302.454
,C1922,IQOILDYEBKDJQN-LXCLTORNSA-N,C#CC(c1ccc(cc1)F)(c1ccc(cc1)F)OC(=O)NC1CCCCCC1,-7.659416997,5.6815,383.431
,C4219,IQPDOPNOTVECJO-XLWJZTARSA-N,C[NH2+]CCCC1(OCCc2c1cccc2)c1ccccc1.[Cl-],-3.94834874,-0.5197,317.853
,C1765,IQRKAGUQCVXZSS-RGEXLXHISA-N,CCCCCC[NH+](C(=N)c1ccc(c2c1cccc2)OCCCC)CCCCCC.[Cl-],-9.974630214,3.4933,447.096
,C5430,IQUPABOKLQSFBK-UHFFFAOYSA-N,ClCCN(C(=O)N[C@H]1[C@H](OC(=O)C)[C@@H](COC(=O)C)O[C@H]([C@@H]1OC(=O)C)OC)N=O,-3.080090358,0.4755,453.829
,C3822,IQVNZWORTXPRJG-UHFFFAOYSA-N,CCN(/N=C\C(=O)c1ccc(cc1)c1ccccc1)CC,-4.230249146,3.8639,280.364
,C1157,IQWYAQCHYZHJOS-UHFFFAOYSA-N,[O-][N+](=O)c1ccccc1O,-1.74,1.8236,139.109
,C5495,IQYJSKNHDZZDGA-UHFFFAOYSA-N,FCCCCCCSC#N,-3.043114574,2.73058,161.24
,C4111,IQZBVVPYTDHTIP-UHFFFAOYSA-N,Clc1ccc2c(c1)C(=NCC(=O)N2C)C1=CCCCC1,-4.039120187,3.1065,288.772
,C8306,IRAKAHJFDQRYNL-UHFFFAOYSA-N,COc1cccccc1=O,-1.092624929,1.0554,136.148
,C8169,IRATYSMPOJBEIJ-UHFFFAOYSA-N,NC(=O)Nc1ccc(cc1)F,-1.214337001,2.0896,154.142
,C5810,IRBYNKOJMGCYPA-UHFFFAOYSA-N,OC(=O)CCC(=O)OCn1c(=O)oc2c1cc(Cl)cc2,-2.84518934,1.6134,299.664
,C8166,IRCMYGHHKLLGHV-GFCCVEGCSA-N,OCCCNc1ccccc1C(=O)N,-1.215707755,1.3531,194.23
,C2930,IRGXGIZCHCTASM-UHFFFAOYSA-N,Ic1ccc(nc1)SCCCCCCN1CSCC1.Cl,-5.188789856,5.0849,444.825
,C590,IRIAEXORFWYRCZ-UHFFFAOYSA-N,CCO[C@@H]1Oc2c(C1(C)C)cc(cc2)OS(=O)(=O)C,-3.4200001,3.1384,286.344
,C5155,IRKXPJJKXBMOMW-VKAVYKQESA-N,Ic1ccc(nc1)OCCCCCNCCSS(=O)(=O)O,-3.27673239,3.8326,446.325
,C169,IRLPIORIFSVWIM-UHFFFAOYSA-N,CCCCOC(=O)c1ccccc1C(=O)OCc1ccccc1,-5.6399999,4.0005,312.36
,C6987,IRMGMLDQRYBJGV-UHFFFAOYSA-N,Clc1ccc2=NC(=N)CN(C(=c2c1)c1ccccc1)O,-2.095174656,1.2714,285.728
,C7211,IROINLKCQGIITA-UHFFFAOYSA-N,CCC(C(=O)N)(SCC#C)CC,-1.951869916,2.0972,185.286
,C6712,IRSCQMHQWWYFCW-UHFFFAOYSA-N,CCS(=O)c1ccc(cc1)OCC(CN1CCN(CC1)c1ccccc1)O.Cl.Cl,-2.267917765,4.8486,461.446
,C453,IRSNBSGPKPZUDV-UHFFFAOYSA-N,CCNc1nc(SC)nc(n1)NC(C)(C)C,-4,2.3817,241.356
,C7452,IRTLROCMFSDSNF-UHFFFAOYSA-N,OCC(OCn1cnc2c1[nH]c(N)nc2=O)CO,-1.773470054,-1.3897,255.231
,C3450,IRTZMJWVZQYURE-UHFFFAOYSA-N,Clc1ccc2c(c1)nc1c(c2N)cccc1,-4.580351812,4.2048,228.677
,C6184,IRUFVVPEZOAVPC-UHFFFAOYSA-N,c1ccc(cc1)c1ccc[nH]1,-2.60348481,2.6817,143.185
,C8787,IRUXAEDBQBZIGG-UHFFFAOYSA-N,CN(C(=O)C(=O)N(N(C(=O)C)C)c1ccccc1)C,-0.534519571,0.5011,263.292
,C5246,IRVWPZRYDQROLU-ZDUSSCGKSA-N,CCNC(=O)c1cc(Cl)cc(c1O)C,-3.211129891,2.4946,213.661
,C5880,IRYFCWPNDIUQOW-UHFFFAOYSA-N,COc1cc(ccc1OC)N1CCN(CC1)CC(COc1cccc(c1)C(=O)C)O.Cl.Cl,-2.792479017,4.0752,487.417
,C7973,IRYJRGCIQBGHIV-UHFFFAOYSA-N,COc1c(OC)c(OC)cc2c1c1ccc(c(=O)cc1[C@H](CC2)N)O,-1.389645696,3.0915,343.374
,C4923,ISADCDVTGCDIGA-UHFFFAOYSA-N,COc1ccccc1N1CCN(CC1)CCCC(=O)c1ccc(cc1)F,-3.439717897,3.6223,356.434
,C8838,ISAKRJDGNUQOIC-UHFFFAOYSA-N,O=C1OC(C(=O)N1C)(C)C,-0.456797077,0.3115,143.141
,C5028,ISAOCJYIOMOJEB-ZDUSSCGKSA-N,CCN1CCCC(C1)OC(=O)Nc1cccc(c1)C,-3.365807591,3.0387,262.347
,C1245,ISBUYSPRIJRBKX-UHFFFAOYSA-N,O=c1cc[nH]c(=O)[nH]1,-1.48,-0.9368,112.087
,C763,ISDBSWZMAMHJRR-UHFFFAOYSA-N,O[C@H](C(=O)c1ccccc1)c1ccccc1,-2.8499999,2.6029,212.244
,C4856,ISEUFVQQFVOBCY-UHFFFAOYSA-N,CC1=NN(C(=O)C1)CCOc1ccc2c(c1)cccc2,-3.497290437,2.2003,268.31
,C7770,ISFBTZLEOKKUDX-UHFFFAOYSA-N,ClCCN(CC=C)CCCl,-1.549318207,1.952,182.091
,C897,ISIQEWJJVXFCDP-UHFFFAOYSA-N,COc1nc(NC(C)C)nc(n1)NC(C)C,-2.48,1.6668,225.291
,C7904,ISMYLNZMKJLINI-UHFFFAOYSA-N,[O-][N+](=O)c1nc(cn1C)C,-1.450649337,1.1599,141.128
,C7596,ISNMCLQAHBYOKS-UHFFFAOYSA-N,CC(COc1ccccc1C)O,-1.668015062,1.7546,166.217
,C759,ISPVXYGNERQUGG-UHFFFAOYSA-N,CCn1c2ncccc2n(c(=O)c2c1nccc2)CC,-2.8599999,2.3482,268.314
,C2555,ISPYQTSUDJAMAB-UHFFFAOYSA-N,CN1c2ccccc2CN(c2c1cccc2)C,-5.728628823,3.5343,224.301
,C3680,ISRUGXGCCGIOQO-UHFFFAOYSA-N,[O-]S(=O)(=O)NC1CCCCC1.C[NH+]1CCCC1c1cn(c2c1cccc2)Cc1ccccc1,-4.36427275,6.449,469.639
,C1361,ISTJMQSHILQAEC-ZCFIWIBFSA-N,Oc1ccccc1Cl,-1.0599999,2.0456,128.556
,C1056,ISVQQJRVLCFYMV-UHFFFAOYSA-N,CNC(=O)Oc1ccccc1OC(C)C,-2.05,2.5829,209.242
,C1455,ISWCFTDIWKTFSI-UHFFFAOYSA-N,CC[C@H](C(C)C)O,-0.69999999,1.4133,102.175
,C5871,ISWQCIVKKSOKNN-UHFFFAOYSA-L,O=C(Nc1ccccc1C)Nc1ncco1,-2.796586329,2.773,217.224
,C4897,ISWSIDIOOBJBQZ-UHFFFAOYSA-N,CC([NH2+]CCOC(c1ccccc1)c1ccccc1)C.[Cl-],-3.460196954,-0.2316,305.842
,C9551,ISXRXBARLXCMSX-UHFFFAOYSA-N,Oc1cc(cc(c1O)S(=O)(=O)[O-])S(=O)(=O)[O-].[Na+].[Na+],0.502807642,1.0676,314.201
,C1561,ISXUHJXWYNONDI-UHFFFAOYSA-L,Oc1ccccc1,0,1.3922,94.1112
,C4525,ITAGVMKMCPHVKM-UHFFFAOYSA-N,CCN(C(C=C(c1cccs1)c1cccs1)C)C.Cl,-3.706508933,5.3835,313.909
,C4361,ITCJXSWUTFPBKJ-UHFFFAOYSA-N,Cl[Sn](c1ccccc1)(c1ccccc1)Cl,-3.837363645,2.7206,343.815
,C7130,ITDDTOSAIBLWDV-UHFFFAOYSA-N,OC(=O)C(CNNCc1ccccc1)(C)C.Cl,-2.020176691,2.9754,258.744
,C3832,ITEQSCBLCCNACE-UHFFFAOYSA-N,O=C1C(CCc2c1cc(C)c(c2)C)C[NH+]1CCCCC1.[Cl-],-4.221184358,0.6905,307.858
,C4183,ITIMVGQIEWDPHB-UHFFFAOYSA-N,C=CCc1cccc(c1OCC(CO)O)Br,-3.978106445,1.9096,287.15
,C1405,ITIONVBQFUNVJV-UHFFFAOYSA-N,O=C1C=C(OC(=O)N(C)C)CC(C1)(C)C,-0.85000002,1.9576,211.258
,C8287,ITJJTERMXJOUEE-UHFFFAOYSA-N,[O-][N+](=O)c1nccn1CC(=O)NCC(CO)O,-1.101975835,-0.8252,244.205
,C4321,ITJWERYFHMJKKT-UHFFFAOYSA-N,CCN1C(=O)c2c(C1Nc1ccc(cc1)OCCN1CCCCC1)cccc2,-3.859222531,4.0865,379.495
,C2709,ITMSAWKLJVGBIT-UHFFFAOYSA-N,CCOC(=O)COc1cc(OCC(=O)OCC)c2c(c1)oc(cc2=O)c1ccccc1,-5.496299666,3.3438,426.416
,C5134,ITPBBIALPUKKHC-YISXUXMPSA-N,Cc1cc(OCCCN2CSCC2)nc2c1cccc2.Cl.Cl,-3.286056417,4.8603,361.33
,C6366,ITPDYQOUSLNIHG-UHFFFAOYSA-N,CCOC(=O)NC(C(Cl)(Cl)Cl)O,-2.496928932,1.812,236.481