Name,Compound ID,InChIKey,SMILES,logS,logP,MW
,C9556,MWVTWFVJZLCBMC-UHFFFAOYSA-N,Oc1cccc(c1)[N+](Cc1ccccc1)(C)C.[Br-],0.511140607,0.1633,308.214
,C5490,MWVYOMQTCFCPHY-UHFFFAOYSA-N,Clc1ccc(nc1)SCCCCN1CSCC1.Cl,-3.046914562,4.3535,325.321
,C1225,MWWATHDPGQKSAR-UHFFFAOYSA-N,n1ccc(cc1)c1ccncc1,-1.54,2.1436,156.184
,C3516,MWXMWHAEFXOXRF-UHFFFAOYSA-N,CCCCCCCCCCSCCO,-4.521685276,3.8526,218.399
,C1504,MWYHLEQJTQJHSS-UHFFFAOYSA-N,CC#C,-0.41,0.6395,40.0639
,C3721,MXAZVIZJOJQEGQ-UHFFFAOYSA-L,CCC(=O)c1ccccc1OCC(CN1CCN(CC1)c1ccc(c(c1)C)C)O.Cl.Cl,-4.32133854,5.0649,469.444
,C3853,MXJWRABVEGLYDG-UHFFFAOYSA-N,CCCc1c(OCCCCc2n[nH]nn2)ccc(c1O)C(=O)C,-4.204088623,2.4621,318.371
,C6979,MXLCXWPNZGESLV-UHFFFAOYSA-N,C1CCCN(CC1)/C=C/C=C/C=[N+]1CCCCCC1.C1CCCN(CC1)/C=C/C=C/C=[N+]1CCCCCC1.OC(=O)c1cc2ccccc2c(c1[O-])Cc1c([O-])c(cc2c1cccc2)C(=O)O.O.O,-2.102810156,12.1118,945.235
,C6180,MXLMTQWGSQIYOW-RXMQYKEDSA-N,CCCCOc1ccc(cc1)CC(=O)NO,-2.605716637,2.3043,223.268
,C2343,MXOAEAUPQDYUQM-UHFFFAOYSA-N,CN(Cc1ccccc1)CCC(c1cccc2c1cccc2)(C(=O)N)C(C)C,-6.120165975,5.4413,374.518
,C1533,MXPYFZODOSRODU-UHFFFAOYSA-N,C[C@H](C(C)C)O,-0.2,1.0232,88.1482
,C8061,MXTPRJXPLFGHEE-UHFFFAOYSA-N,OCC(COc1ccc(cc1)Cl)O,-1.306712317,1.072,202.635
,C9737,MXUNKHLAEDCYJL-UHFFFAOYSA-N,OC(=O)CCN([N+](=O)[O-])CCC(=O)O,0.685808213,-0.0473,206.153
,C9847,MXWJVTOOROXGIU-UHFFFAOYSA-N,NCCSS(=O)(=O)O,0.803541933,1.2622,157.212
,C6772,MXWLYAJUZGDOGU-UHFFFAOYSA-N,OCC1OC(=O)N(C1)c1cccc(c1)C,-2.236546064,1.3775,207.226
,C479,MXXWOMGUGJBKIW-BPMFVRGZSA-N,CCNc1nc(NC(C)C)nc(n1)Cl,-3.8499999,1.9231,215.683
,C5638,MXXWOMGUGJBKIW-YPCIICBESA-N,COc1cccc(c1)N1CCN(CC1)CC(COc1ccccc1C(=O)C)O.Cl.Cl,-2.951018603,4.0666,457.391
,C582,MXZNFYAZTAGKQZ-UHFFFAOYSA-N,O=C(N1CCCCC1)/C=C\C=C\c1ccc2c(c1)OCO2,-3.46,2.9351,285.338
,C581,MYAPKIZEEJRDPD-UHFFFAOYSA-N,O=C(N1CCCCC1)/C=C/C=C/c1ccc2c(c1)OCO2,-3.46,2.9351,285.338
,C3993,MYDQAEQZZKVJSL-UHFFFAOYSA-N,CCCCN1CCC(=O)C(C1)C1CCN(C(C1)OC(=O)CC)CCCC.Cl.Cl,-4.115291437,4.9487,439.46
,C3481,MYEJFUXQJGHEQK-ALRJYLEOSA-N,Brc1cnc(c(c1)Br)OCCCCCCNCCSS(=O)(=O)O,-4.552298698,5.1431,492.247
,C1248,MYGVPKMVGSXPCQ-JEDNCBNOSA-N,CCCCCOC(=O)N,-1.47,1.9722,131.173
,C4211,MYKLQMNSFPAPLZ-UHFFFAOYSA-N,O[C@H]1[C@H](O[C@H]2CC[C@]3(C(=C2)CC[C@@H]2[C@@H]3CC[C@]3([C@]2(O)CC[C@@H]3c2ccc(=O)oc2)C)C)O[C@H]([C@@H]([C@H]1O)O)C,-3.955289712,3.0138,530.65
,C8180,MYOOIYINODJOSW-OAZHBLANSA-N,N[C@H](C(=O)O)CC[S+](C)C.[Cl-],-1.204844777,-2.6294,199.699
,C8081,MYPYJXKWCTUITO-LYRMYLQWSA-N,CC1=CC(=O)C(=CC1=O)C,-1.288299596,1.0308,136.148
,C6462,MYQXHLQMZLTSDB-UHFFFAOYSA-N,CN(CC(=O)[NH2+]/N=C/c1ccc(o1)[N+](=O)[O-])C.[Cl-],-2.437651684,-3.2995,276.677
,C1751,MYSWGUAQZAJSOK-UHFFFAOYSA-N,OC[C@H]1O[C@@H](Oc2c3cc4cc2Oc2ccc(cc2Cl)[C@@H](O)[C@@H]2NC(=O)[C@H](NC(=O)[C@@H]4NC(=O)[C@H](CC(=O)N)NC(=O)[C@@H]([C@@H](c4ccc(O3)c(Cl)c4)O)NC(=O)[C@@H](CC(C)C)NC)c3ccc(c(c3)c3c(O)cc(cc3[C@H](NC2=O)C(=O)O)O)O)[C@@H]([C@H]([C@@H]1O)O)O[C@@H]1O[C@@H](C)[C@H]([C@@](C1)(C)N)O,-10.8755905,3.9326,1449.25
,C5952,MYVIATVLJGTBFV-UHFFFAOYSA-M,CCC1Oc2c(C1)cc(cc2)CC(=O)O,-2.74734864,2.0272,206.238
,C8341,MYWUZJCMWCOHBA-UHFFFAOYSA-N,Fc1cc2c(cc1N1CCNCC1)n(cc(c2=O)C(=O)O)C1CC1,-1.043161762,1.9771,331.342
,C9257,MZHCENGPTKEIGP-RXMQYKEDSA-N,OCCc1sc[n+](c1C)Cc1cnc(nc1N)C.[Cl-],0.220684968,-1.8071,300.808
,C8337,MZMHSWCIXSDEPD-UHFFFAOYSA-N,CNC(Cc1ccccc1)C,-1.050024869,2.2279,149.233
,C905,MZPCTRNDYNHZQE-UHFFFAOYSA-N,OC(=O)[C@H](Oc1ccc(cc1Cl)Cl)C,-2.45,2.8453,235.064
,C5690,MZPZTGNMUWMDBQ-UHFFFAOYSA-N,CCN(c1c(C)n(CC)c(=O)n(c1=O)c1ccccc1)CC,-2.916835988,2.1737,301.383
,C6665,MZQAQBDIKUFBSF-UHFFFAOYSA-N,CC(=O)Oc1cccc2c1nccc2,-2.300422587,2.1601,187.195
,C5494,MZQMJDMSBIOZRX-UHFFFAOYSA-M,CN(CCOc1cc(C)ccc1C(C)C)C,-3.044037739,3.0588,221.339
,C6257,MZRMNCMJRSKSTF-UHFFFAOYSA-N,O=C(c1cccnc1)NCN(c1c(=O)n(n(c1C)C)c1ccccc1)C(C)C,-2.56213723,2.8726,379.455
,C9641,MZWKCFGWAWRHDY-UHFFFAOYSA-N,COCC[N+](C)(C)C.[I-],0.610649601,-2.657,245.102
,C9456,MZXYOYJKGHWUEO-BJFQDICYSA-N,CCN/C(=N/CCSS(=O)(=O)O)/N,0.378206126,1.6186,227.305
,C5369,MZZBPDKVEFVLFF-UHFFFAOYSA-N,CCN(CCSC(=O)C(c1ccccc1)c1ccccc1)CC.Cl,-3.115430361,5.2221,363.945
,C1849,MZZQBSHNCYWSTL-UHFFFAOYSA-N,CCCCCCCOc1ccc(c2c1cccc2)C(=N)[NH+](CCC)CCC.[Cl-],-8.414355099,2.323,405.016
,C673,MZZQSAPGRDBPFR-UHFFFAOYSA-N,CCNc1nc(nc(n1)Cl)NC(C#N)(C)C,-3.1500001,1.81688,240.693
,C7687,MZZVFXMTZTVUFO-UHFFFAOYSA-N,Nc1cccc(c1)P(=O)(O)O,-1.604848683,0.653,173.106
,C5923,MZZYGYNZAOVRTG-UHFFFAOYSA-N,CN1CCCC(C1)OC(=O)C(c1cccs1)(c1ccccc1)O,-2.766043468,2.5593,331.429
,C4431,NAEAAGULDNVNCW-UHFFFAOYSA-N,S=C=Nc1ccc(cc1)Cl,-3.778013041,3.0743,169.631
,C8525,NAGRVUXEKKZNHT-UHFFFAOYSA-N,O=C(c1ccccc1O)Nc1ncn[nH]1,-0.875463438,0.8356,204.185
,C8656,NAILKKRDWBJCNH-UHFFFAOYSA-N,CCOC(=O)N1CCN(CC1)C(=O)OCC,-0.728757608,0.7928,230.261
,C3260,NAMSOPNNAZYEMZ-UHFFFAOYSA-N,COc1cc(OC)nc(n1)NC(=O)NS(=O)(=O)c1c(Cl)nc2n1cccc2,-4.786441166,2.85,412.808
,C5098,NAMVGYMNDWZPDQ-UHFFFAOYSA-N,CCCc1cccc(c1O)CCC,-3.313121418,3.2972,178.271
,C5536,NAMYKGVDVNBCFQ-UHFFFAOYSA-N,CC[NH+](CCN1C(=O)C(C)Oc2c1cc(C)cc2)CC.[Cl-],-3.019648326,-1.8974,312.835
,C1880,NAPPWIFDUAHTRY-XYDRQXHOSA-N,O=C1N(c2ccccc2)N(C(=O)C1C1(C2C(=O)N(N(C2=O)c2ccccc2)c2ccccc2)C(=O)N(N(C1=O)c1ccccc1)c1ccccc1)c1ccccc1,-8.063091116,6.5802,752.772
,C1208,NAPSCFZYZVSQHF-UHFFFAOYSA-N,CC(Br)C,-1.59,1.7897,122.992
,C4532,NASMVDMHYMZBIM-UHFFFAOYSA-N,C#C[C@]1(O)CC[C@@H]2[C@]1(C)CC[C@H]1[C@H]2CCc2c1ccc(c2)O.C#C[C@]1(O)CC[C@@H]2[C@]1(C)CC[C@H]1[C@H]2CCC2=CC(=O)CC[C@H]12,-3.702515237,7.1051,594.823
,C1955,NASQQMSTSLFMPB-UHFFFAOYSA-L,CCCCCCCCCCCCCCCCCCN(C)C,-7.455306311,6.8095,297.562
,C5269,NASXCEITKQITLD-UHFFFAOYSA-N,FCCCCCCCl,-3.187310846,2.7551,138.611
,C1947,NAVVOYFFGOHKJL-UHFFFAOYSA-N,C[N+]1(CCCCCCCCCC[N+]2(C)CCCCC2)CCCCC1.[I-].[I-],-7.514960652,-0.7062,592.423
,C4369,NAWXKCLMLISGEZ-UHFFFAOYSA-N,O=C1C(c2ccc(cc2)F)C(=O)c2c1cccc2,-3.830159708,2.9885,240.229
,C2212,NAXCZPWMFMOBLL-UHFFFAOYSA-N,C1CCN(CC1)c1nc(c(o1)c1ccccc1)c1ccccc1,-6.45812881,5.0639,304.386
,C6952,NAYYNDKKHOIIOD-UHFFFAOYSA-N,CC(N1C(=O)Cc2c(S1(=O)=O)cccc2)C,-2.12124416,2.1871,239.291
,C1976,NAZDVUBIEPVUKE-UHFFFAOYSA-N,BrCCN(c1ccc(cc1)OC(=O)c1cccc(c1)Cl)CCBr,-7.291333098,5.1554,461.575
,C741,NBBJYMSMWIIQGU-UHFFFAOYSA-N,NC(=O)c1ccccc1C(=O)N,-2.9200001,1.285,164.161
,C8015,NBBYUWQRZGTKFI-UHFFFAOYSA-N,COc1ccc(c(c1)N)OC,-1.343970605,1.8672,153.178
,C1614,NBCLKMSYLLWGFG-UHFFFAOYSA-N,CCC=O,0.57999998,0.5953,58.0791
,C5190,NBEALWAVEGMZQY-UHFFFAOYSA-N,CN(CC=C(c1cccc(c1)F)c1ccccc1)C.Cl,-3.252888768,4.621,291.791
,C3235,NBFQYHKHPBMJJV-UHFFFAOYSA-N,CCN(CCN1c2ccccc2NCc2c1cccc2)CC,-4.828980469,4.295,295.422
,C2024,NBJGGHFXCGHTNJ-UHFFFAOYSA-N,C#CC(c1ccccc1)(c1ccccc1)OC(=O)NC1CCCCC1,-7.088437071,5.0132,333.424
,C958,NBJHDLKSWUDGJG-UHFFFAOYSA-N,CCCOC(=O)c1ccc(cc1)N,-2.3299999,2.4168,179.216
,C9351,NBLIVIWUPTWDMD-UHFFFAOYSA-N,OS(=O)(=O)O.NC(=NCCN1CCCCCCC1)N.NC(=NCCN1CCCCCCC1)N,0.305658081,4.1568,494.695
,C9485,NBNTWDUNCHRWMT-UHFFFAOYSA-N,ClCCN1CCOCC1.Cl,0.398695555,1.2973,186.08
,C704,NBOOZXVYXHATOW-UHFFFAOYSA-N,O=C1NC(=O)NC(=O)C21CCCCC2,-3.0599999,0.9605,196.203
,C3145,NBQCNZYJJMBDKY-UHFFFAOYSA-N,Clc1ccc(cc1)C(c1ccc(cc1)Cl)(c1cccnc1)O,-4.924395054,4.6726,330.208
,C8587,NBSUZFZWVGDSEV-UHFFFAOYSA-N,N1CCN(CC1)Cc1ccc2c(c1)OCO2,-0.808933189,1.0872,220.268
,C894,NBSYUEKYJQKRTJ-UHFFFAOYSA-N,Cc1[nH]c(=O)n(c(=O)c1Cl)C(C)(C)C,-2.48,1.2534,216.665
,C6097,NCAIGTHBQTXTLR-UHFFFAOYSA-N,O=C(c1ccncc1)[NH2+]c1cccc(c1C)C.[Cl-],-2.660609344,-1.2623,262.735
,C3071,NCCJZRNBNATXBI-UHFFFAOYSA-N,FC(c1cc(OCCCCCN2CSCC2)nc2c1cccc2)(F)F.Cl,-5.020647426,5.5489,406.893
,C9165,NCDGQDBGSOGZBW-UHFFFAOYSA-N,CC(Cc1ccccc1)(N)C.Cl,0.087225624,3.4687,185.694
,C2738,NCIKQJBVUNUXLW-UHFFFAOYSA-N,CN(CCCC1(OC(c2c1cc(Cl)cc2)(C)C)c1ccccc1)C.Cl,-5.449853078,5.9927,380.351
,C6379,NCMZQTLCXHGLOK-ZKHIMWLXSA-N,OC(=O)C(=O)O.CNCCCC1OC(c2c1cccc2)(C)C,-2.490901479,2.5391,309.358
,C8444,NCPKFGJFXZBRFD-UHFFFAOYSA-N,CNCCc1c[nH]c2c1cccc2,-0.944500094,2.3207,174.242
,C343,NCPLWPQEVIBZKJ-UHFFFAOYSA-N,CC(=O)O[C@H]1CC[C@]2(C(=CC[C@@H]3[C@@H]2CC[C@]2([C@H]3CCC2=O)C)C1)C,-4.46,4.45,330.461
,C5013,NCRPDZJXUVPKNS-UHFFFAOYSA-N,CC1CC(C(=O)N1c1ccccc1)N1CCCCC1.Cl,-3.376139676,3.4712,294.82
,C8886,NCRVPKSUUBCYGU-UHFFFAOYSA-N,OCCNC(=O)c1ccccc1O,-0.393032623,0.5052,181.189
,C8866,NCTVMGMNIUJYIN-UHFFFAOYSA-N,CCOC(=O)N1CCN(CC1)CC.Cl,-0.425539291,1.4582,222.712
,C9723,NCXMLFZGDNKEPB-CBXWSWNKSA-N,C/N=C(/NCCSS(=O)(=O)O)\N,0.671070231,1.2285,213.278
,C7831,NCXMLFZGDNKEPB-FFPOYIOWSA-N,OCCN1CCN=C1Nc1ncc(s1)[N+](=O)[O-],-1.509309071,0.0968,257.27
,C658,NCXMLFZGDNKEPB-MJXHKMJHSA-N,C[C@H]1C/C=C\C=C/C=C/C=C/[C@H](O[C@H]2O[C@H](C)[C@H]([C@@H]([C@@H]2O)N)O)C[C@H]2O[C@](C[C@H](C[C@H]3[C@H](/C=C\C(=O)O1)O3)O)(O)C[C@H]([C@@H]2C(=O)O)O,-3.21,0.82,665.725
,C6803,NCXUIEDQTCQZRK-UHFFFAOYSA-L,C[C@@H]1C/C=C/C=C/C=C/C=C/[C@H](O[C@@H]2O[C@H](C)[C@H]([C@@H]([C@@H]2O)N)O)C[C@@H]2O[C@@](C[C@H](C[C@@H]3[C@@H](/C=C/C(=O)O1)O3)O)(O)C[C@@H]([C@H]2C(=O)O)O,-2.210516209,0.82,665.725
,C659,NCXUNZWLEYGQAH-UHFFFAOYSA-N,C[C@H]1C/C=C\C=C\C=C/C=C/[C@H](O[C@H]2O[C@H](C)[C@H]([C@@H]([C@@H]2O)N)O)C[C@H]2O[C@](C[C@H](C[C@H]3[C@H](/C=C/C(=O)O1)O3)O)(O)C[C@H]([C@@H]2C(=O)O)O,-3.21,0.82,665.725
,C9635,NCYVXEGFNDZQCU-UHFFFAOYSA-N,[O-]C(=O)CCCCCCCCC(=O)[O-].[Na+].[Na+],0.608687256,-0.393,246.211
,C9841,NDAUXUAQIAJITI-GFCCVEGCSA-N,CN(CC(O)C)C,0.793054552,-0.0712,103.163
,C9805,NDAUXUAQIAJITI-UHFFFAOYSA-N,CCN(C(=O)c1cccnc1)CC,0.74900701,1.5636,178.231
,C1326,NDCVPWSONNZYKP-UHFFFAOYSA-N,OCc1cc(ccc1O)[C@@H](CNC(C)(C)C)O,-1.22,1.6969,239.311
,C1705,NDDAHWYSQHTHNT-SNVBAGLBSA-N,OCc1cc(ccc1O)C(CNC(C)(C)C)O	,-1.22 ,1.6969,239.311
,C2415,NDDAHWYSQHTHNT-UHFFFAOYSA-N,CCCCCCCCCCCCCCCCNCCSS(=O)(=O)O,-5.988360992,7.065,381.637
,C555,NDKBVBUGCNGSJJ-UHFFFAOYSA-M,C[C@@H]1Cc2c(N1NC(=O)c1ccc(c(c1)S(=O)(=O)N)Cl)cccc2,-3.5899999,4.3204,365.835
,C2991,NDKYICANXPTKKC-UHFFFAOYSA-N,CC1Cc2c(N1NC(=O)c1ccc(c(c1)S(=O)(=O)N)Cl)cccc2,-5.121586556,4.3204,365.835
,C9263,NDNUANOUGZGEPO-MRVPVSSYSA-N,C[N+](Cc1ccccc1)(C)C.[OH-],0.232994713,1.716,167.248
,C2962,NDOGLIPWGGRQCO-UHFFFAOYSA-N,CCOc1ccc2c(c1)c(N)c1c(n2)cc(cc1)[N+](=O)[O-],-5.149030573,4.3815,283.282
,C1242,NDPWNLBKGLNLRA-UHFFFAOYSA-N,CCC[C@@H]1CCCCN1,-1.5,2.2574,127.227
,C8809,NDSWVTKMCVPUFP-UHFFFAOYSA-N,CCC(=O)CC(=O)C,-0.498984525,0.9446,114.142
,C9337,NDTSRXAMMQDVSW-UHFFFAOYSA-N,OCCOc1ccc(cc1N)[As](=O)(O)O,0.296923281,-1.2179,277.106
,C4121,NDVDXOIGBPXNAP-UHFFFAOYSA-N,CN1C2CCC1CN(C2)CCOC(=O)C(c1ccccc1)c1ccccc1,-4.026390318,3.0159,364.481
,C3345,NDVWOBYBJYUSMF-UHFFFAOYSA-N,Clc1cc2NC(=NS(=O)(=O)c2cc1S(=O)(=O)N)CSCc1ccccc1,-4.685675894,4.869,431.937
,C7322,NDWQMEJAHYKRLJ-UHFFFAOYSA-N,Nc1ccc(cc1)C(=O)Nc1ccncc1.Cl.Cl,-1.871142142,4.1743,286.157
,C8300,NDYMQXYDSVBNLL-MUYMLXPFSA-N,CC1CCCCC1O,-1.096674271,1.5574,114.185
,C7270,NEAUUNBQQPLQGJ-UHFFFAOYSA-N,CCNC(CC(=O)c1ccccc1)(C)C.Cl,-1.91503532,3.8404,241.757
,C2113,NEDVJZNVOSNSHF-ZNHDNBJUSA-N,CC(=O)OC(/C=C/C(=O)[C@@]([C@H]1[C@H](O)C[C@@]2([C@]1(C)CC(=O)[C@@]1([C@H]2CC=C2[C@H]1C=C(O)C(=O)C2(C)C)C)C)(O)C)(C)C,-6.777602371,4.1902,556.687
,C3684,NEEHYRZPVYRGPP-IYEMJOQQSA-L,CC(Cc1ccc(cc1)CC(=O)N1C2CCC1CN(C2)C)C,-4.360495145,2.6084,300.438
,C9129,NEGMMKYAVYNLCG-UHFFFAOYSA-N,[O-][N+](=O)[O-].OCC(c1ccccc1)C(=O)OC1C[C@@H]2CC[C@H](C1)[N+]2(C)C,0.024411709,2.3184,366.409
,C8277,NEGSZULJUBFMHT-UHFFFAOYSA-N,OC[C@H]([C@H]([C@@H]([C@H](C(=O)[O-])O)O)O)O.OC[C@H]([C@H]([C@@H]([C@H](C(=O)[O-])O)O)O)O.[Ca+2],-1.111399785,-9.6556,430.373
,C2275,NEKOXWSIMFDGMA-UHFFFAOYSA-N,CCC1(C(=O)NC(=O)N1C)c1ccccc1,-6.28206134,1.7402,218.252
,C8974,NEOZRYIORLIHJH-UHFFFAOYSA-N,OCC(COc1ccccc1CO)O,-0.255750405,-0.0891,198.216
,C111,NEQZNVCTZFSAIO-UHFFFAOYSA-N,CCCN(c1c(cc(cc1[N+](=O)[O-])C(C)C)[N+](=O)[O-])CCC,-6.4899998,5.2992,309.361
,C3378,NERNEXMEYQFFHU-UHFFFAOYSA-N,Cc1ccc(cc1)C(c1ccc(cc1)Br)OCC[NH+](C)C.[Cl-],-4.654730003,0.012,384.738
,C1832,NESMARWNWRENBF-UHFFFAOYSA-L,OC(c1ccccc1)(c1cccc(n1)C(c1ccccc1)(Cc1ccccc1)O)Cc1ccccc1,-8.587213975,6.0388,471.589
,C8003,NEUYJXYCELJYTG-UHFFFAOYSA-N,O=C1NC(=O)NC21CCCCC2,-1.358348175,1.1863,168.193
,C3727,NEVPGZLSKXATIM-UHFFFAOYSA-N,C[N+]1(CCC[N+]2(C)CCCC2)CCc2c(C1)cccc2.[Br-].[Br-],-4.315530543,-3.2546,434.252
,C6498,NEWGTAXNYDMBSR-UHFFFAOYSA-M,CCOC(=O)N1CCN(C(C1)C)C(=O)OCC,-2.414317844,1.1813,244.288
,C9164,NEWLATOFXAHBFJ-UHFFFAOYSA-N,COP(=O)(N(C)C)OC,0.086815359,0.9489,153.117
,C6034,NEXDOZRNANHHKQ-SNAWJCMRSA-N,CC(c1cc(C(=O)[O-])c(cc1O)C)C.[Na+],-2.693405704,1.1875,216.209
,C4789,NEYNJQRKHLUJRU-DZUOILHNSA-N,CN(CC=C(c1cccc(c1)F)c1cccc(c1)F)C.Cl,-3.5505439,4.7601,309.781
,C6958,NEYWCGJURRTMTC-UHFFFAOYSA-N,C/C=C/Cn1c(=O)c2n(C)cnc2n(c1=O)C,-2.116843254,0.0098,234.254
,C3076,NFABBAWHYBOFPI-UHFFFAOYSA-N,CSCC[C@@H](C(=O)N[C@H](C(=O)N[C@H](C(=O)N)Cc1ccccc1)CC(=O)O)NC(=O)[C@H](Cc1c[nH]c2c1cccc2)NC(=O)CCNC(=O)OC(C)(C)C,-5.015251515,4.175,767.891
,C5580,NFACJZMKEDPNKN-VKHMYHEASA-N,CN1CCN(CC1)CC(C(=O)c1c[nH]c2c1cccc2)c1ccccc1,-2.98945733,3.2576,347.453
,C7233,NFBAXHOPROOJAW-UHFFFAOYSA-N,NC(=O)c1ccc(o1)C(C)(C)C,-1.933222415,2.3763,167.205
,C1529,NFBOHOGPQUYFRF-UHFFFAOYSA-N,COP(=O)([C@@H](C(Cl)(Cl)Cl)O)OC,-0.22,2.1609,257.437
,C5119,NFBYCNFAXLUGBT-UHFFFAOYSA-N,O=C1C(c2ccccc2)C(=O)c2c1cccc2,-3.298386287,2.8494,222.239
,C195,NFCRBQADEGXVDL-UHFFFAOYSA-M,c1ccc2c(c1)Oc1c(O2)cccc1,-5.3099999,3.5846,184.191
,C6899,NFDFQCUYFHCNBW-SCGPFSFSSA-N,CN(C12CC3CC(C2)CC(C1)C3)C,-2.153226724,2.5168,179.302
,C2557,NFDNQGGQNTZYFP-UHFFFAOYSA-N,CCCCCCCCCCCCCCCC[n+]1ccccc1.[Cl-].O,-5.72523161,3.3951,358.001
,C243,NFDQYBUVHVRNNY-UHFFFAOYSA-N,C/C=C(/C(=C/C)/c1ccc(cc1)O)\c1ccc(cc1)O,-4.9499998,4.6046,266.334
,C6827,NFGXHKASABOEEW-UQHDCKCOSA-N,OC(=O)C(=O)O.CN(CCCC1(O)OC(c2c1cccc2)(C)C)C,-2.192239989,1.5944,339.383
,C8810,NFHMMNLSDVYWAP-UHFFFAOYSA-N,O=C1CC(CC(=O)N1)CC(C1CC(C)(O)CC(C1=O)C)O,-0.497378282,0.4852,297.347
,C217,NFLGAXVYCFJBMK-DTWKUNHWSA-N,COC(CCC[C@H](C/C=C/C(=C/C(=O)OC(C)C)/C)C)(C)C,-5.1900001,5.062,310.471
,C2938,NFLGRPGGSIWLGW-UHFFFAOYSA-N,O=C1NCC2(C1)c1ccccc1CCc1c2cccc1,-5.179967583,2.92,263.334
,C893,NFLLKCVHYJRNRH-UHFFFAOYSA-N,C[C@H]1CC[C@@H](C(=O)C1)C(C)C,-2.49,2.6477,154.249
,C5652,NFRKUDYZEVQXTE-RXMQYKEDSA-N,CN(CC(C(=O)c1c[nH]c2c1cccc2)c1ccccc1)C,-2.943506384,3.696,292.375
,C6819,NFTNTGFZYSCPSK-UHFFFAOYSA-N,Clc1[nH]c2c(n1)n(C)c(=O)n(c2=O)C.CN(CCOC(c1ccccc1)c1ccccc1)C,-2.194948881,2.9679,469.964
,C835,NFUCNAREVSTFNC-UHFFFAOYSA-N,CCC[C@H](Cl)C,-2.6300001,2.4138,106.594
,C7320,NFVCQZNBRFPYOP-WDDOJFKXSA-N,NC(=O)c1cc2ccccc2cc1O,-1.874361196,2.3446,187.195
,C7463,NFYYATWFXNPTRM-QJICHLCESA-N,OC(=O)CC1NC(=S)N(C1=O)c1ccccc1,-1.763934994,1.1448,250.274
,C4066,NGBBVGZWCFBOGO-UHFFFAOYSA-N,O[C@@H]1CC[C@]2([C@@H](C1)CC[C@@H]1[C@@H]2[C@H](O)C[C@]2([C@H]1CC[C@@H]2C(=O)C)C)C,-4.066514225,3.566,334.493
,C5512,NGDNVOAEIVQRFH-SECBINFHSA-N,C=C[C@]12CN([C@H]3[C@@H]2[C@]2([C@H]4C[C@@H]1[C@@H]3CO4)C(=O)Nc1c2cccc1)C,-3.032444207,2.1035,322.401
,C8497,NGFMICBWJRZIBI-UJPOAAIJSA-N,CC(Cc1ccc2c(c1)OCO2)N,-0.901201507,2.0053,179.216
,C795,NGGMYCMLYOUNGM-CSDLUJIJSA-N,CCCCCCC[C@H](O)C,-2.74,2.7277,144.255
,C1409,NGIVTUVVBWOTNT-UHFFFAOYSA-N,OC[C@H]1O[C@@H](Oc2ccccc2CO)[C@@H]([C@H]([C@@H]1O)O)O,-0.85000002,-1.6424,286.278
,C2288,NGJLFMBOFBKYHK-VQHVLOKHSA-N,CO[C@@H]1[C@@H](CC[C@@]2([C@H]1[C@@]1(C)O[C@@H]1CC=C(C)C)CO2)OC(=O)/C=C/C=C/C=C/C=C/C(=O)O,-6.254336821,3.9154,458.544
,C5833,NGKVMFBBTSYCCV-UHFFFAOYSA-L,Nc1ccc(cc1)S(=O)(=O)[N-]c1nc(C)cc(n1)C.[Na+],-2.82532636,3.7317,300.312
,C5955,NGNSUTIRTDXXGA-UHFFFAOYSA-N,C/C(=C\c1ccccc1)/CC(=O)O,-2.746355792,2.5646,176.212
,C7174,NGPDZEACIWDCKX-WUDKWMPASA-N,Cc1ccc(c(c1)[NH-])[NH-].Cl[Pt+2]Cl,-1.976296457,4.7389,386.136
,C5470,NGRDFVAIXCRXHN-UHFFFAOYSA-N,CCn1c2cc(Cl)ccc2oc1=O,-3.057780397,2.2678,197.618
,C8580,NGSWKAQJJWESNS-ZZXKWVIFSA-N,C[C@@H]1C(=O)O[C@H]2[C@H]1CC[C@@]1([C@@H]2[C@](C)(O)C=CC1=O)C,-0.814676662,1.4703,264.317
,C5507,NGVDGCNFYWLIFO-UHFFFAOYSA-N,CC[NH+](CCNC(=O)c1ccc(cc1)[N+](=O)[O-])CC.[Cl-],-3.034073299,-1.8326,301.769
,C8430,NGXUUAFYUCOICP-UHFFFAOYSA-N,OC(=O)/C=C/c1ccc(cc1)O,-0.952816254,1.49,164.158
,C8048,NGXZRVUMBBHGBE-UHFFFAOYSA-N,O=Cc1c(COP(=O)(O)O)cnc(c1O)C,-1.316307888,0.5174,247.142
,C8318,NGYXKOYBVFNFFH-UHFFFAOYSA-N,CCn1c(=O)n(CC=C)c(cc1=O)N,-1.079942733,0.3793,195.218
,C4838,NGZOZDKXUPYDFY-UHFFFAOYSA-N,CCC1(CCC(C)C)C(=O)NC(=S)NC1=O,-3.513138772,2.0075,242.338
,C3172,NHALRSQXOLZIPN-UHFFFAOYSA-N,CNC(=O)c1cc(Br)cc(c1OC)c1ccccc1,-4.899020974,3.8752,320.181
,C2934,NHARPDSAXCBDDR-UHFFFAOYSA-N,Clc1ccc(cc1)C(=O)C(c1ccc(cc1)Cl)CN1CCCC1.Cl,-5.183749879,5.7956,384.727
,C7232,NHCCUUKOKFWVLH-UHFFFAOYSA-N,Cn1cc(c2c1cccc2)C1CCC[NH2+]1.[Cl-],-1.933368065,0.1498,236.74
,C7034,NHDODQWIKUYWMW-UHFFFAOYSA-N,CCCOC(=O)C(=C)C,-2.064820733,1.5157,128.169
,C3835,NHGAGSBJULBOFK-HDJCBORZSA-N,CCCN1CCc2c(C1)cccc2NC(=O)c1cc(OC)c(c(c1)OC)OC,-4.219381262,3.7437,384.469
,C543,NHLAPJMCARJFOG-UHFFFAOYSA-N,Clc1ccc(cc1)Br,-3.6300001,3.1025,191.453
,C7644,NHLUVTZJQOJKCC-UHFFFAOYSA-N,CN([C@@H]1C(=O)C(=C([C@@]2([C@H]1C[C@H]1C(=C(O)c3c([C@@]1(C)O)cccc3O)C2=O)O)O)C(=O)NCN1CCCC1)C.[O-][N+](=O)O,-1.628268347,0.8175,590.579
,C7952,NHMMHCXTHYEVLE-VTBWALSUSA-N,O=C1NN=C(C1)C,-1.415349805,-0.3534,98.1032
,C2201,NHMUJYOBLYTIKO-UHFFFAOYSA-L,CCCCCCCCCCCCCCCCN(C)C,-6.482173198,6.0293,269.509
,C4645,NHOWDZOIZKMVAI-KRWDZBQOSA-N,Cl/N=C/1\C=C/C(=N/Cl)/C=C1,-3.643184731,2.302,175.015
,C6411,NHOWLEZFTHYCTP-UHFFFAOYSA-N,CN(c1c(C)n(n(c1=O)c1ccccc1)C)CS(=O)(=O)[O-].CN(c1c(C)n(n(c1=O)c1ccccc1)C)CS(=O)(=O)[O-].[Mg+2],-2.467137694,3.0082,645.003
,C359,NHPPIJMARIVBGU-UHFFFAOYSA-N,Clc1ccc(cc1)[C@@](c1ccccc1Cl)(c1cncnc1)O,-4.3800001,4.0676,331.196
,C9898,NHRYCKNLCGBRIY-UHFFFAOYSA-N,NNCc1ccccc1,0.913031871,1.7411,122.168
,C325,NHTGHBARYWONDQ-UHFFFAOYSA-N,Ic1cccc2c1cccc2,-4.5500002,3.4444,254.067
,C6205,NHTGQOXRZFUGJX-UHFFFAOYSA-N,CCCC(C1(C)OCC(O1)CO)C,-2.594438689,1.5465,188.264
,C8808,NHTMVDHEPJAVLT-UHFFFAOYSA-N,Oc1ccc(cc1)CC(C(=O)O)(N)C,-0.501150706,1.437,195.215
,C184,NHUHCSRWZMLRLA-UHFFFAOYSA-N,Clc1c(Cl)c(Cl)c(c2c1nccn2)Cl,-5.4299998,4.2434,267.927
,C279,NHVQLOCTXSMKIX-UHFFFAOYSA-N,CC(CC(C)(C)C)C,-4.7399998,3.0786,114.229
,C747,NHXSTXWKZVAVOQ-UHFFFAOYSA-N,Nc1ccc(cc1)S(=O)(=O)Nc1onc(c1C)C,-2.9100001,3.4094,267.304
,C2786,NHXXLEBCTOQKJS-UHFFFAOYSA-N,CCCC(=O)C1=C(O)C(=C(C(C1=O)(C)C)O)Cc1c(O)c(C)c(c(c1O)C(=O)CCC)O,-5.383115606,4.2394,446.49
,C7807,NHYQQYMSESLQDX-UHFFFAOYSA-N,CCOC(=O)c1ccco1,-1.522273819,1.4563,140.137
,C5126,NHZLNPMOSADWGC-UHFFFAOYSA-N,O=C(NC(=O)c1ccccc1)NNC(=O)c1ccccc1,-3.293864138,2.6437,283.282
,C8423,NHZSGFPRDZNUNP-UHFFFAOYSA-N,N#Cc1ncnc2c1[nH]cn2,-0.95762225,0.22458,145.122
,C3428,NIACDRXJTWKKRD-UHFFFAOYSA-N,Nc1ccc(cc1)S(=O)(=O)Nc1cnc2c(n1)cccc2,-4.602546129,3.7478,300.336
,C2907,NIAMBTSPHJKHDH-UHFFFAOYSA-N,CN1CCC2=C(C1CCc1ccc(cc1)[N+](=O)[O-])CCCC2,-5.222430329,4.5632,300.395
,C4266,NIBFSSALYRLHPY-UHFFFAOYSA-N,CCCCC(c1ccccc1)OC(=O)CCC(=O)O,-3.907583932,3.3259,264.317
,C6378,NICDYIQSKYACMJ-UHFFFAOYSA-N,OCCCCc1[nH]c2c(n1)n(C)c(=O)n(c2=O)C,-2.491248088,-0.7247,252.27
,C5700,NIGAUKVBFJZEHV-UHFFFAOYSA-N,Ic1ncnc2c1[nH]cn2,-2.909511898,0.9575,246.009
,C8592,NIHNNTQXNPWCJQ-UHFFFAOYSA-N,NCCCCSC(=N)N.Br.Br,-0.798966929,3.7685,309.066
,C9093,NIHRMUCHYZKKDX-UHFFFAOYSA-N,ON=C(C(=O)N)C(=O)N,-0.03839163,-0.8122,131.09
,C249,NIJJYAXOARWZEE-UHFFFAOYSA-N,c1ccc2c(c1)Cc1c2cccc1,-4.9099998,3.2578,166.219
,C4998,NIKHXOYLHFLXFU-YGICXTQQSA-N,OC(CN1CCN(CC1)c1ccccc1Cl)COc1ccccc1C(=O)C,-3.388431885,3.1074,388.888
,C1125,NIKKSNUDXYPTRO-UHFFFAOYSA-N,CCCC(C(=O)O)CCC,-1.86,2.2874,144.211
,C3540,NILOGSUCKNGCDM-UHFFFAOYSA-N,Oc1ccc(cc1)CCN1CC[C@@]23[C@H]([C@H]1Cc1c3cc(cc1)O)CCCC2.Cl,-4.491425774,5.1388,399.953
,C1350,NILQLFBWTXNUOE-UHFFFAOYSA-N,COc1ncc2c(n1)nccn2,-1.11,0.4284,162.149
,C4726,NIPLIJLVGZCKMP-UHFFFAOYSA-M,CCOP(=O)(OC(C(Cl)(Cl)Cl)Cl)OCC,-3.589119623,4.1192,319.935
,C8876,NIPRGEWHJUTVQK-UHFFFAOYSA-N,OC(=O)C1(N)CCCC1,-0.41215467,1.0428,129.157
,C9916,NIQCNGHVCWTJSM-UHFFFAOYSA-N,C=C[N+](C)(C)C.[OH-],0.986467617,0.6593,103.163
,C5529,NIQMFMMHMRRKLU-UHFFFAOYSA-N,S=C1NCCC(O1)COc1ccccc1,-3.020489651,2.0576,223.291
,C1178,NIVFTEMPSCMWDE-UHFFFAOYSA-N,COC(=O)c1ccccc1C(=O)OC,-1.66,1.2598,194.184
,C5367,NIVZHWNOUVJHKV-UHFFFAOYSA-N,CN1CCC(C1)OC(=O)Nc1c(C)cccc1Cl,-3.123982559,2.9119,268.739
,C7842,NIWCFXFECXNXGD-PFEQFJNWSA-N,CCC(C1(O)CCCCC1)C(=O)O,-1.50131259,1.7924,186.248
,C5672,NIXKBAZVOQAHGC-UHFFFAOYSA-N,CN/C(=N\C)/NCc1ccccc1,-2.931989416,1.7632,177.246