Name,Compound ID,InChIKey,SMILES,logS,logP,MW
,C4608,OIFBSDVPJOWBCH-UHFFFAOYSA-N,CCCCCOc1cc(/C=C/C(=O)NO)ccc1OC,-3.662223331,3.1737,279.332
,C2574,OIGNJSKKLXVSLS-MKIDGPAKSA-N,CCCCCCCCCCCCCCCCCCCCCCCCCCCCCCOC(=O)CCCCCCCCCCCCCCCCCCCCCCCCC,-5.702978065,20.8546,817.487
,C8594,OIHHBESCFLISMR-UHFFFAOYSA-N,CCOC(=O)OCC,-0.798209707,1.1794,118.131
,C657,OIICUUGPVAEJSH-UHFFFAOYSA-M,OCC(=O)[C@@]1(O)CC[C@@H]2[C@]1(C)C[C@@H](O)[C@H]1[C@H]2CCC2=CC(=O)C=C[C@]12C,-3.21,1.5576,360.444
,C7676,OIIGBIYLGSWNKY-UHFFFAOYSA-N,CCCn1c(=O)cc(n(c1=O)C)N,-1.610705204,0.1204,183.208
,C9016,OIKUIULSCUTJRI-JJECXDOKSA-N,CC[N+](Cc1ccccc1Br)(C)C.[Br-],-0.164907033,0.0494,323.067
,C5492,OIMCRYGRGHXRHC-UHFFFAOYSA-M,CCCC(C1(CC)C(=O)NC(=O)N(C1=O)C)C,-3.045702655,1.7939,240.299
,C3657,OINJRSNCEMPEFS-UHFFFAOYSA-N,O/N=C(\c1cccc(c1)OCC(C[NH+]1CCN(CC1)c1ccccc1)O)/C.[Cl-],-4.383134378,-0.3322,405.918
,C8964,OINMNSFDYTYXEQ-UHFFFAOYSA-M,C[NH+](CCC[n+]1ccc2c(c1)cccc2)C.[Cl-].[Br-],-0.265449411,-5.3301,331.679
,C4887,OIPILFWXSMYKGL-UHFFFAOYSA-N,Nc1ccc2c(c1)cc1c(n2)ccc(c1)[NH3+].[Cl-],-3.469777848,-0.5712,245.707
,C9632,OIPVGRCXMFBNAN-SNAWJCMRSA-N,BrCC[N+](C)(C)C.[Br-],0.607348764,-1.9085,246.971
,C9866,OIPVZGSYIJYEGU-UHFFFAOYSA-N,CC(=O)OCC[N+](C)(C)C,0.835022893,0.2557,146.207
,C5186,OIRAEJWYWSAQNG-LBPRGKRZSA-N,OC(=O)/C=C/c1c(Cl)cccc1Cl,-3.25736854,3.0912,217.049
,C9820,OIRDTQYFTABQOQ-KQYNXXCUSA-N,ClC1CS(=O)(=O)CC1O,0.768003179,0.4639,170.615
,C2546,OIRDTQYFTABQOQ-UHTZMRCNSA-N,OC(=O)[C@H]1CCc2c1cc(Cl)c(c2)C1CCCCC1,-5.742824846,4.5021,278.774
,C7826,OISVCGZHLKNMSJ-UHFFFAOYSA-N,OC[C@H]1O[C@H]([C@@H]([C@@H]1O)O)n1cnc2c1ncnc2N,-1.511615306,-1.3988,267.241
,C7827,OIWMXOXKUZXIQW-LVEZLNDCSA-N,OC[C@H]1O[C@H]([C@H]([C@@H]1O)O)n1cnc2c1ncnc2N,-1.511615306,-1.3988,267.241
,C1601,OJAJSEABEYJWLC-UHFFFAOYSA-N,Cc1cccc(n1)C,0.44999999,1.6984,107.153
,C3331,OJCPSBCUMRIPFL-UHFFFAOYSA-N,CN1CCN(CC1)CC1COC2(O1)c1ccccc1OCc1c2cccc1.OC(=O)/C=C/C(=O)O.OC(=O)/C=C/C(=O)O,-4.694354955,1.7423,598.598
,C7746,OJCZPLDERGDQRJ-UHFFFAOYSA-N,Nc1ccc(c(c1)O)C(=O)O.CN(CCC(c1ccccn1)c1ccccc1)C,-1.569624523,4.419,393.479
,C4930,OJGMBLNIHDZDGS-UHFFFAOYSA-N,CCCC(N1CCCC1)Cc1ccccc1,-3.437296437,3.4315,217.35
,C8295,OJIIZIWOLTYOBS-UHFFFAOYSA-N,OC(=O)C(CC(=O)O)(CC(=O)O)O.COCC1(CCN(CC1)CCc1cccs1)N(c1ccccc1)C(=O)CC,-1.09967839,2.9042,578.674
,C1170,OJIOCNFCPOQZFN-UHFFFAOYSA-N,CCNc1ccccc1,-1.7,2.1914,121.18
,C3687,OJIPQOWZZMSBGY-ZZJGABIISA-N,COc1ccc(cc1)C(=O)Nc1ccccc1CCC1CCCCN1C.Cl,-4.359429222,5.1773,388.931
,C4319,OJIYIVCMRYCWSE-UHFFFAOYSA-M,Cc1ccc(cc1)OC(=O)c1ccc(cc1O)N,-3.861418543,3.0832,243.258
,C7265,OJJAQNZSNFIQSA-UHFFFAOYSA-N,OCC(c1ccccc1)C(=O)OC1C[C@@H]2CC[C@H](C1)N2C.Cl,-1.917498859,2.6708,325.83
,C9161,OJLOPKGSLYJEMD-URPKTTJQSA-N,CCCCCCCCCCCC[N+](CCOc1ccccc1)(C)C.[Br-],0.081474829,3.0667,414.463
,C6652,OJMMVQQUTAEWLP-KIDUDLJLSA-N,Nc1ccc(cc1)C(=O)Nc1cccc(n1)C,-2.3112134,2.8787,227.262
,C2265,OJOBTAOGJIWAGB-UHFFFAOYSA-N,CCCCC(C/C=C/[C@H]1[C@H](O)CC(=O)[C@@H]1CCCCCCC(=O)OC)(O)C,-6.313866074,3.9536,382.534
,C6131,OJPDDQSCZGTACX-UHFFFAOYSA-N,CCC[C@H]1CN([C@@H](C1)C(=O)N[C@@H]([C@H]1O[C@H](SC)[C@@H]([C@H]([C@H]1O)O)O)[C@H](O)C)C,-2.641880876,-0.5282,406.537
,C8008,OJPWHUOVKVKBQB-UHFFFAOYSA-N,COc1cc(cc(c1O)OC)C(=O)C,-1.352186945,1.612,196.2
,C1443,OJSIHOCBTHOQJA-UHFFFAOYSA-N,OCCN(c1ccccc1)CCO,-0.73000002,0.4776,181.232
,C3436,OJTFRASCEXKERE-UHFFFAOYSA-L,OS(=O)(=O)O.CCN(CCCC(Nc1ccnc2c1ccc(c2)Cl)C)CC,-4.595817436,5.3116,417.951
,C6770,OJTXPGCWXBTARX-UHFFFAOYSA-N,CCCC(=O)c1ccc(cc1)OCC(CO)O,-2.237213973,1.4014,238.28
,C9299,OJVABJMSSDUECT-UHFFFAOYSA-L,CC[N+](CCS(=O)CC[N+](CC)(CC)C)(CC)C.[I-].[I-],0.273837023,-3.4184,532.306
,C2584,OJYGBLRPYBAHRT-AMRQHQFISA-N,CCN(CCCn1c(=O)c2ccccc2[nH]c2c1cccc2)CC,-5.684367611,3.7769,323.432
,C8260,OJYOTLHNSMYONM-UHFFFAOYSA-N,[O-]S(=O)(=O)[O-].COc1c(OC)ccc2c1c[n+]1CCc3c(c1c2)cc1c(c3)OCO1.COc1c(OC)ccc2c1c[n+]1CCc3c(c1c2)cc1c(c3)OCO1,-1.123879876,5.9354,768.785
,C1132,OKAGOUJJSDPCCX-YKFNWNKUSA-N,OC[C@H]([C@@H]1O[C@H]2[C@@H]([C@H]1O)O[C@H](O2)C(Cl)(Cl)Cl)O,-1.84,-0.4629,309.528
,C4985,OKBFCOHJPXQZTL-UHFFFAOYSA-N,CCN1CCCC(C1)OC(=O)C(c1ccccc1)(c1ccccc1)O,-3.397217713,2.8879,339.428
,C6905,OKBVVJOGVLARMR-QSWIMTSFSA-N,OS(=O)(=O)O.CN([C@@H]1C(=O)C(=C([C@@]2([C@H]1[C@@H](O)[C@H]1C(=C(O)c3c([C@]1(C)O)cccc3O)C2=O)O)O)C(=O)N)C.CN([C@@H]1C(=O)C(=C([C@@]2([C@H]1[C@@H](O)[C@H]1C(=C(O)c3c([C@]1(C)O)cccc3O)C2=O)O)O)C(=O)N)C,-2.146021494,-0.9718,1018.95
,C6857,OKFRDMBIDGPCCX-UHFFFAOYSA-N,C[N+](=C(COCc1ccc(cc1)C(C)C)N)C.[Cl-],-2.17257886,-0.3398,270.798
,C4256,OKHBMCHTIXFPOE-UHFFFAOYSA-N,Nc1nc(cs1)/C(=N/OCC(=O)O)/C(=O)N[C@H]1[C@H]2SCC(=C(N2C1=O)C(=O)O)C=C,-3.915293249,0.3652,453.45
,C8319,OKHORWCUMZIORR-UHFFFAOYSA-N,OC(=O)C(OC1CCCCC1)(C)C,-1.079766938,2.1989,186.248
,C3902,OKIBNKKYNPBDRS-UHFFFAOYSA-N,COc1ccc2c(c1CN(C)C)oc(c(c2=O)C)c1ccc(cc1)F,-4.173405123,3.9777,341.376
,C2369,OKIZCWYLBDKLSU-UHFFFAOYSA-M,COC(=O)Cc1c2cc(OC)ccc2n(c1C)C(=O)c1ccc(cc1)Cl,-6.077568842,4.0157,371.814
,C647,OKJPEAGHQZHRQV-UHFFFAOYSA-N,CC(=O)Nc1cc(NS(=O)(=O)C(F)(F)F)c(cc1C)C,-3.24,3.7501,310.293
,C9779,OKKJLVBELUTLKV-UHFFFAOYSA-N,C[N+](C)(C)C.[Cl-],0.729283121,-2.6736,109.598
,C4717,OKLOCJHVBDCKPW-UHFFFAOYSA-L,IC(I)I,-3.595200702,2.575,393.732
,C1666,OKPXKOTXEVLWNV-UHFFFAOYSA-N,CO,1.5700001,-0.3915,32.0419
,C9429,OKSFLWQAQWJYJB-UHFFFAOYSA-N,CC[N+](CCOCC[N+](CC)(CC)CC)(CC)CC.[Br-].[Br-],0.362209181,-3.236,434.294
,C6872,OKXVARYIKDXAEO-UHFFFAOYSA-N,COc1ccc(cc1)n1c(C)c(N(C)C)c(=O)n(c1=O)C,-2.164735767,0.9192,289.33
,C9713,OKZCLMVQKVNQTO-UHFFFAOYSA-N,C[NH2+]C(C(c1cccc(c1)O)O)C.[Cl-],0.662155556,-2.9887,217.693
,C1446,OLBCVFGFOZPWHH-UHFFFAOYSA-N,CC(C(C)(C)C)(O)C,-0.72000003,1.8034,116.201
,C7082,OLBMBFHNGDUGST-UHFFFAOYSA-N,COc1ccc(cc1)C/N=C(/CSS(=O)(=O)O)\N,-2.047951459,2.8695,290.359
,C5306,OLEYTRFQBFZKGQ-SPIKMXEPSA-N,CC(c1cccc(c1O)C(C)C)C,-3.158369776,3.639,178.271
,C8221,OLGQEKQLWIIWDX-UHFFFAOYSA-L,COc1ccc(c(c1)CC(N)C)OC.Cl,-1.160843537,3.0958,231.719
,C2058,OLGRRKKKZVVCNR-UHFFFAOYSA-N,Clc1ccccc1CNCC1CCCC(C1)CNCc1ccccc1Cl.OC(=O)/C=C\C(=O)O.OC(=O)/C=C\C(=O)O,-6.973995178,5.8846,623.521
,C6197,OLGVYMCHLGYBAQ-UHFFFAOYSA-N,C(=CC=[N+]1CCN(CC1)c1ccccc1)C=CN1CCN(CC1)c1ccccc1.C(=CC=[N+]1CCN(CC1)c1ccccc1)C=CN1CCN(CC1)c1ccccc1.[Cl-].[Cl-].O.O.O,-2.598239331,0.8325,900.033
,C8630,OLMLXLYLTJSOSI-UHFFFAOYSA-N,CCC(=O)c1ccc(cc1)OCC(CN1CCOCC1)O,-0.765837368,1.2891,293.358
,C2191,OLMPQQPQSTVRPB-UHFFFAOYSA-N,CC(=CCN(CC=C(C)C)CCC(c1cccc2c1cccc2)C(=O)N)C,-6.508658394,5.7335,364.524
,C7157,OLNJUISKUQQNIM-UHFFFAOYSA-N,OCCOc1c(cccc1C(=O)N)c1ccccc1,-1.993780712,2.5239,257.285
,C6484,OLNLBYCEMYGFIP-UHFFFAOYSA-N,O=c1[nH]c2c(n1c1ccccc1)cccc2,-2.424530581,2.3188,210.231
,C7566,OLWXRKNZPGNRLT-UHFFFAOYSA-N,O=Cc1c[nH]c2c1cccc2,-1.695427229,1.9804,145.158
,C2565,OMAFWWAJLVYWPU-UHFFFAOYSA-N,CN(CCCC12CC3CC(C1)CC(C2c1ccccc1)C3)C.Cl,-5.718172787,5.7403,333.938
,C150,OMAIORNZIIDXOB-UHFFFAOYSA-N,CCCCCC(=O)OCN1C(=O)NC(C1=O)(c1ccccc1)c1ccccc1,-5.8899999,3.8297,380.437
,C6978,OMCKLQRQFUWZOA-UHFFFAOYSA-N,OC1C2CC(C(C2C2(C31OC3C(=O)C12CO1)C)O)(C)C,-2.103261826,-0.1203,280.316
,C9159,OMFIBMTXPDPQIC-UHFFFAOYSA-N,CC12COP(OC1)OC2,0.079870779,1.2966,148.097
,C2002,OMFXVFTZEKFJBZ-HJTSIMOOSA-N,CCCC(COC(=O)NC(C(Cl)(Cl)Cl)O)(COC(=O)NC(C(Cl)(Cl)Cl)O)C,-7.15503222,4.4042,513.026
,C7255,OMFXVFTZEKFJBZ-IIJALIKYSA-N,CSC(=[N+]1CCCCC1)c1c[nH]c2c1cccc2.[I-],-1.922277123,0.4367,386.294
,C1691,OMHUKXIIJPBUIP-FJUODKGNSA-N,OCC(=O)[C@H]1CC[C@@H]2[C@]1(C)C[C@H](O)[C@H]1[C@H]2CCC2=CC(=O)CC[C@]12C	,-3.24 ,2.6667,346.46
,C649,OMHUKXIIJPBUIP-KIUKIJHYSA-N,OCC(=O)[C@H]1CC[C@@H]2[C@]1(C)C[C@@H](O)[C@H]1[C@H]2CCC2=CC(=O)CC[C@]12C,-3.24,2.6667,346.46
,C2628,OMIHMYNWDWUMGW-UHFFFAOYSA-N,CN(CC/C=C/1\c2ccccc2Sc2c1cc(F)cc2)C.Br,-5.603798043,5.6318,380.318
,C2629,OMJKFYKNWZZKTK-UXBLZVDNSA-N,CN(CC/C=C\1/c2ccccc2Sc2c1cc(F)cc2)C.Br,-5.603798043,5.6318,380.318
,C8551,OMMBWIJMWMSGBX-BGWNKZQTSA-N,c1ccc(cn1)OCCCN1CSCC1.Cl.Cl,-0.845738488,3.3987,297.244
,C7636,OMNXUSQATUXCBP-UHFFFAOYSA-N,CN(N/N=C\1/N=CN=C1C(=O)N)C,-1.635307859,-1.7033,182.183
,C3856,OMOMUFTZPTXCHP-UHFFFAOYSA-N,CCN(CCn1c(=N)onc1c1ccccc1)CC.Cl,-4.200620841,2.8661,296.796
,C5780,OMPLHFKUSGGZFF-UHFFFAOYSA-N,OC(CNC(C)(C)C)COc1c2occc2c(c2c1oc(C)cc2=O)O.Cl,-2.864122635,3.8739,397.85
,C6643,OMPPEMJDJUYBCE-UHFFFAOYSA-N,CCCC(C(=O)N)CCC,-2.319330193,2.3884,143.227
,C6794,OMRAPVPZNVLTSF-UHFFFAOYSA-N,OCC(c1ccc(cc1)OC)C(=O)OC1CC2CCC(C1)N2C,-2.218778963,1.8774,319.395
,C2372,OMTSAXNHNKXZKC-UHFFFAOYSA-N,CCCCOc1ccc(cc1)OCC(=O)N(c1cccc(c1)OC)CCN1CCCC1.Cl,-6.076763345,5.1218,463.009
,C7812,OMWQUXGVXQELIX-UHFFFAOYSA-N,NC(=O)OCC1(CCCC1)COC(=O)N,-1.521349019,2.138,216.234
,C6474,ONASFMNNONUTBN-UHFFFAOYSA-N,CCN1CCN(CC1C(=O)Nc1c(C)cccc1C)CC.ON=O.ON=O,-2.431419276,2.5007,383.443
,C2791,ONBWJWYUHXVEJS-ZTYRTETDSA-N,S=C=Nc1ccc(cc1)N=C=S,-5.375229546,3.1552,192.261
,C6914,ONCICIKBSHQJTB-UHFFFAOYSA-N,CN1CCCC1c1cn(c2c1cccc2)C,-2.143525768,2.8829,214.306
,C9099,ONEJOFKVJCCUOT-UHFFFAOYSA-N,O[C@H]1C=C[C@@H]2[C@@]34[C@H]1Oc1c4c(C[C@H]2NCC3)ccc1O,-0.026084517,1.1847,271.311
,C6373,ONHUPCAVZVIYFY-LFYBBSHMSA-N,CCC(=O)c1ccc(cc1)N(C)C,-2.49499581,2.3453,177.243
,C3658,ONIHPYYWNBVMID-UHFFFAOYSA-N,CC1CCCCN1CCCCCOC(=O)c1ccccc1,-4.382345808,3.826,289.412
,C6454,ONJSZLXSECQROL-UHFFFAOYSA-N,[O-][N+](=O)c1ccc(o1)/C=N/N(C(=O)N)CC(=O)OCC,-2.440829634,1.689,284.225
,C5994,ONKKMSVOTHQXSC-UHFFFAOYSA-N,CCOC(=O)c1ccc(cc1)C(=O)OCC,-2.719456391,2.04,222.237
,C8546,ONLCCQOVEHJJMB-UHFFFAOYSA-N,OC(=O)CNC(=O)c1ccccc1O,-0.85617251,0.5975,195.172
,C9883,ONLCMWSDRRGYML-UHFFFAOYSA-N,OC(=O)CONC(=O)C,0.857630763,-0.4704,133.103
,C6008,ONNCPBRWFSKDMQ-UHFFFAOYSA-N,CN1CCN(C(C1)C(=O)Nc1c(C)cccc1C)C.ON=O.ON=O,-2.710605207,1.7205,355.389
,C5151,ONNOFKFOZAJDHT-UHFFFAOYSA-N,CCCCNC(=O)OCC(CCC)(CO)C,-3.277883391,2.7023,231.332
,C142,ONPILPIMMVIVAE-UHFFFAOYSA-N,Clc1ccc(c(c1)c1cccc(c1)Cl)Cl,-6.0100002,5.3138,257.543
,C2017,ONPJWQSDZCGSQM-UHFFFAOYSA-N,OC(=O)CCCCCCNC1c2ccccc2CCc2c1cccc2,-7.113587029,4.8902,337.455
,C7095,ONSQUXZPOPTSQF-UHFFFAOYSA-N,O=C(N1CCNCC1)Nc1ccccc1C.Cl.Cl,-2.03917491,3.3758,292.205
,C1054,ONTDSPKZPGJVHX-UHFFFAOYSA-M,C=C(c1ccccc1)C(=O)O,-2.0599999,1.7844,148.159
,C2953,ONTWCYDBNXHETF-UHFFFAOYSA-N,CN(CCCC1(O)c2ccccc2CCc2c1cccc2)C,-5.158694839,3.3629,295.419
,C9770,ONUFESLQCSAYKA-UHFFFAOYSA-N,[O-]P(=O)(SCC(=N)N)O.[Na+],0.716461331,0.9865,192.109
,C8597,ONWSHWFYPNZPAA-UHFFFAOYSA-N,NCCc1csc2c1cc(O)cc2,-0.796192507,2.8084,193.265
,C361,ONWYYGBIGCFYRF-UHFFFAOYSA-N,CC(NC(=O)N1CC(=O)N(C1=O)c1cc(Cl)cc(c1)Cl)C,-4.3800001,3.2738,330.167
,C7875,ONXPZLFXDMAPRO-UHFFFAOYSA-N,NC(=O)OCCCCOC(=O)N,-1.47215044,1.3578,176.17
,C3485,OOGNFQMTGRZRAB-UHFFFAOYSA-N,CCC(=O)c1ccc2c(c1OCC(CN1CCN(CC1)c1ccccc1)O)cccc2.Cl.Cl,-4.54846719,5.6013,491.45
,C1,OOKUCEPETMEKJK-UHFFFAOYSA-N,Clc1c(c2c(Cl)c(Cl)c(c(c2Cl)Cl)Cl)c(Cl)c(c(c1Cl)Cl)Cl,-11.62,9.8876,498.658
,C4761,OOKXTIAMWIVZNL-UHFFFAOYSA-N,CC1N(CCOC1c1ccccc1)Cc1c(=O)n(n(c1C)C)c1ccccc1,-3.56787742,3.3843,377.479
,C7665,OONWCXLYKDWKOU-SOFGYWHQSA-N,CCCC[NH2+]C(C(c1ccccc1)O)C.[Cl-],-1.616873853,-1.524,243.773
,C3430,OOQWOQSMHKWCEB-XOZOLZJESA-N,CCN(C(c1ccc(cc1)Oc1ccccc1)C)CC,-4.599789577,4.8817,269.381
,C7441,OORJLPKTPUREGV-UHFFFAOYSA-N,O=C1NC(=S)S/C/1=C/c1ccccc1,-1.782672869,2.5042,221.299
,C8271,OOSYPTIYPDUFES-UHFFFAOYSA-N,C[C@@H]1N(C)CCO[C@H]1c1ccccc1.Cl,-1.119377938,2.8181,227.73
,C8573,OOVDEPZODSXAMU-UHFFFAOYSA-N,NCCS/C(=N\c1ccccc1)/N.Br.Br,-0.819602314,4.6415,357.108
,C6040,OOXHWFTXPIFDHP-OCIYDRMTSA-N,CCN(CC(=O)N1C(C)(C)C=CC1(C)C)CC,-2.690624437,2.2217,238.369
,C9640,OOXOYCKYWLCWLT-UHFFFAOYSA-M,COC(=O)C(Cc1ccc(cc1)O)(N)C.Cl,0.609589541,2.3274,245.703
,C4177,OOYGSFOGFJDDHP-KMCOLRRFSA-N,CC(=C)CN1CC[C@@]23[C@H]([C@H]1Cc1c3cc(cc1)O)CCCC2.Br,-3.984612263,4.9227,378.346
,C8499,OOYKEEROCQGXPH-UHFFFAOYSA-N,CCCC[N+](CCC)(CCC)CCC.[OH-],-0.9010909,3.6565,217.391
,C9265,OPASCBHCTNRLRM-UHFFFAOYSA-N,OS(=O)(=O)O.OC[C@H]1O[C@H](O[C@H]2[C@H](N)C[C@@H]([C@H]([C@@H]2O)O[C@H]2O[C@H](CN)[C@H]([C@@H]([C@H]2O)O)O)N)[C@@H]([C@H]([C@@H]1O)N)O,0.234648149,-4.0622,582.577
,C7206,OPCJOXGBLDJWRM-UHFFFAOYSA-N,CCN(CCOc1ccccc1)CC,-1.953770904,2.4072,193.285
,C696,OPFTUNCRGUEPRZ-QLFBSQMISA-N,CCSCCSP(=S)(OC)OC,-3.0899999,3.6406,246.351
,C9929,OPIGMRDAPFQALU-UHFFFAOYSA-N,NCC(N)(C)C,1.054757982,1.083,88.1515
,C1984,OPIHSEIJVQHIOX-UHFFFAOYSA-N,C=C[C@]1(C)CC[C@H](C[C@H]1C(=C)C)C(=C)C,-7.242203636,4.7472,204.351
,C4962,OPKVOJLJVUYGEN-UHFFFAOYSA-N,Nc1ccc(cc1)S(=O)(=O)Nc1nnc(s1)C(C)C,-3.414070414,3.7795,298.384
,C8682,OPKYDBFRKPQCBS-UHFFFAOYSA-N,CC1=NS(=O)(=O)c2c(N1C)nccc2,-0.699153021,1.2199,211.241
,C3482,OPLUFIYYYJLGSI-UHFFFAOYSA-N,OC(=O)C(=O)O.CCC(=O)N(c1ccccc1)C(CN1CCC(CC1)(O)c1ccccc1)C,-4.552267914,2.8952,456.531
,C45,OPNGZXISEXVYBU-BTJKTKAUSA-N,Clc1ccc(c(c1)c1ccc(c(c1Cl)Cl)Cl)Cl,-7.9099998,6.6206,326.433
,C2765,OPNPQXLQERQBBV-UHFFFAOYSA-N,COc1cc2c(cc1OC)CC([NH+](C2CCc1ccc(cc1)Cl)C)C.[Br-],-5.416360793,2.0636,440.802
,C2784,OPQULRTWFOXNTE-UHFFFAOYSA-N,OC(=O)/C=C\C(=O)O.COc1ccc2c(c1)C(Cc1c(S2)cccc1)N1CCN(CC1)C,-5.387653409,3.2786,456.555
,C814,OPQYFNRLWBWCST-UHFFFAOYSA-N,CCC(C(=O)NC(=O)N)(CC)Br,-2.6800001,2.2262,237.094
,C6469,OPSSGPQGJGYBIS-UHFFFAOYSA-L,NC(=O)C1c2ccccc2CCc2c1cccn2,-2.434106206,2.4977,238.284
,C1014,OPSXJNAGCGVGOG-DKWTVANSSA-L,OC(=O)COc1ccccc1Cl,-2.1600001,1.8034,186.592
,C9363,OPTASPLRGRRNAP-UHFFFAOYSA-N,C[N+](CCOCC[N+]1(C)CCOCC1)(C)C.[I-].[I-],0.313205591,-5.8472,486.172
,C9817,OPVAJFQBSDUNQA-UHFFFAOYSA-N,[O-]C(=O)C[C@@H](C(=O)[O-])N.[Ca+2],0.766585061,-3.0961,171.165
,C1345,OPXDCLLLVPPBHM-UHFFFAOYSA-N,Nc1cc[nH]c(=O)n1,-1.14,-0.0667,111.102
,C5455,OPXLJUFZIAHIOA-UHFFFAOYSA-N,OC(=O)c1ccc(c(c1)C)C,-3.065340911,2.0016,150.175
,C4877,OPXLLQIJSORQAM-UHFFFAOYSA-N,CCN(C(=O)c1ccc[n+](c1)C1N=C(c2ccccc2)c2c(NC1=O)ccc(c2)Cl)CC.[Cl-],-3.47747449,0.6754,483.39
,C8803,OQANPHBRHBJGNZ-BKUYFWCQSA-N,OS(=O)(=O)SCCNCCc1ccccc1,-0.50928063,2.8264,261.361
,C613,OQAYOKXYIRUJCF-UHFFFAOYSA-N,COC(=O)Nc1[nH]c2c(n1)cc(cc2)C(=O)c1ccccc1,-3.3599999,3.0452,295.293
,C3536,OQDPVLVUJFGPGQ-UHFFFAOYSA-N,OC(=O)C1=C/C(=N\Nc2ccc(cc2)S(=O)(=O)Nc2ccccn2)/C=CC1=O,-4.494801525,3.027,398.393
,C5818,OQEBBZSWEGYTPG-VKHMYHEASA-N,OC(C[NH+]1CCN(CC1)c1ccccc1)COc1cccc(c1)C(O)C.[Cl-],-2.837672459,-0.4771,392.92
,C6648,OQHDRLTXPGYYJN-UHFFFAOYSA-N,c1cnc(nc1)N1CCN(CC1)Cc1ccc2c(c1)OCO2,-2.313052822,1.5304,298.34
,C1653,OQIFRQVYHYGHRI-MWLCHTKSSA-N,C[C@@H](CC(=O)O)N,1.08,0.5086,103.12
,C8032,OQIQSTLJSLGHID-WNWIJWBNSA-N,CNCC(c1ccccc1)C.Cl,-1.324317561,3.2024,185.694
,C7530,OQLZQQCXUHKXAD-UHDJGPCESA-N,NCC(=O)OC[C@H]([C@@H](c1ccc(cc1)[N+](=O)[O-])O)NC(=O)C(Cl)Cl,-1.719648987,2.033,380.181
,C4514,OQNKZWDYYSHLPO-UHFFFAOYSA-N,COc1cc2O[C@@H]3[C@H](c2c2c1c1CCC(=O)c1c(=O)o2)C=CO3,-3.712784638,2.2765,312.274
,C7940,OQOHSPIPPVKMOW-UHFFFAOYSA-N,CC/C=C(/C1(CC)C(=O)NC(=O)NC1=O)\C.[Na+],-1.42591604,1.7627,247.246
,C8304,OQWLDKFPOJCKBX-UHFFFAOYSA-N,NNC(=O)CC(C)C,-1.094957236,1.1136,116.162
,C6172,OQZCSNDVOWYALR-GMSGAONNSA-N,CCC(CC(C)C)(COC(=O)N)COC(=O)N,-2.6126023,3.0201,246.303
,C6619,ORAUEDBBTFLQSK-UHFFFAOYSA-N,CN(CCN(c1ccccn1)Cc1cscc1)C.Cl,-2.334111227,3.5133,297.847
,C443,ORAVWBRRSYFFCC-UHFFFAOYSA-N,ClC[C@@H]1CN(C(=O)[C@@H]1Cl)c1cccc(c1)C(F)(F)F,-4.0500002,3.5794,312.115
,C3129,ORFFGRQMMWVHIB-UHFFFAOYSA-N,c1ccc(cc1)C(c1ccccc1)N1CCN(CC1)Cc1ccc2c(c1)OCO2,-4.942803781,4.1983,386.486
,C7135,ORFOPKXBNMVMKC-DWVKKRMSSA-N,Clc1ccc(c(c1)Cl)N1C(=O)C2C(C1=O)C1OC2CC1,-2.010057935,2.7252,312.148
,C1116,ORJVQPIHKOARKV-OAHLLOKOSA-N,COc1c(OC)ccc2c1C(=O)OC2,-1.89,1.3742,194.184
,C5342,ORKBYCQJWQBPFG-WOMZHKBXSA-N,O=C1[C@@H](NC(=O)/C(=N\OC(C(=O)O)(C)C)/c2csc(n2)N)[C@@H]2N1C(=C(CS2)C[n+]1ccccc1)C(=O)[O-],-3.139733703,-0.3892,546.576
,C3699,ORMNNUPLFAPCFD-DVLYDCSHSA-M,COc1cc2CCN([C@H]3c2c(c1OC)c1ccccc1C3)C,-4.349810081,3.3938,295.376
,C3821,ORNBQBCIOKFOEO-QGVNFLHTSA-N,C#C[C@]1(O)CC[C@@H]2[C@]1(CC)CC[C@H]1[C@H]2CCC2=CC(=O)CC[C@H]12.C#C[C@]1(O)CC[C@@H]2[C@]1(C)CC[C@H]1[C@H]2CCc2c1ccc(c2)O,-4.230636542,7.4952,608.849
,C8128,OROGSEYTTFOCAN-DNJOTXNNSA-N,CC(C(=O)N[C@@H]1C(=O)N2[C@@H]1SC([C@@H]2C(=O)[O-])(C)C)Oc1ccccc1.[K+],-1.245506205,0.0797,402.506
,C296,OROGSEYTTFOCAN-NNYDXVKWSA-N,O[C@H]1CC[C@]2(C(=CC[C@@H]3[C@@H]2CC[C@]2([C@H]3CC[C@@H]2C(=O)C)C)C1)C,-4.6500001,4.5153,316.478
,C1704,ORQQKSZUXNAWAX-UHFFFAOYSA-N,COc1ccc2c3c1O[C@@H]1[C@@]43CCN([C@H](C2)[C@@H]4C=C[C@@H]1O)C	,-1.52 ,1.439,299.364
,C1229,ORRQJZMYQQDYDX-UHFFFAOYSA-N,COc1ccc2c3c1O[C@H]1[C@]43CCN([C@@H](C2)[C@H]4C=C[C@@H]1O)C,-1.52,1.439,299.364
,C8123,ORRZGUBHBVWWOP-UHFFFAOYSA-N,CC(=O)c1ccc(o1)[N+](=O)[O-],-1.247142454,1.9136,155.108
,C8975,ORTYMGHCFWKXHO-UHFFFAOYSA-N,CCOC(=O)CN(CC)CC,-0.254098548,0.8913,159.226
,C8154,OSASVXMJTNOKOY-UHFFFAOYSA-N,CCC1(C)CC(=O)NC(=O)C1,-1.228371956,1.1681,155.194
,C7632,OSBIEFWIIINTNJ-UHFFFAOYSA-N,CCC1(CC)COC(=O)NC1=O,-1.637666836,1.388,171.194
,C8014,OSBQUSPVORCDCU-UHFFFAOYSA-N,CC(C(Cl)(Cl)Cl)(O)C,-1.345983594,2.1275,177.457
,C3397,OSCTXCOERRNGLW-VOTSOKGWSA-N,S=C=Nc1ccc(c(c1)Cl)Cl,-4.633996545,3.7277,204.076
,C7453,OSDLLIBGSJNGJE-UHFFFAOYSA-N,COc1cc(C#N)cc(c1OC)OC,-1.772794018,1.58408,193.199
,C8488,OSDWBNJEKMUWAV-UHFFFAOYSA-N,OCCNC(=O)/C=C/c1ccccc1,-0.908092303,1.1992,191.226
,C777,OSGHSYGGTOXWEY-UHFFFAOYSA-N,Oc1cc(C)c(c(c1)C)Cl,-2.8,2.6624,156.609
,C1282,OSIAKYRUAHXXOZ-UHFFFAOYSA-N,ClCC=C,-1.36,1.4112,76.5248
,C2847,OSIGAIXSSYAHEG-UHFFFAOYSA-N,CC(CCNCC1CCC(CC1)CNCCC(C)C)C.Cl.Cl,-5.29068515,6.45,355.43
,C1916,OSIGJGFTADMDOB-UHFFFAOYSA-N,OC(c1ccccc1)(C1CCCC(N1)C(c1ccccc1)(Cc1ccccc1)O)Cc1ccccc1,-7.729230269,6.0869,477.637
,C8408,OSLFBSQMMORMEI-UHFFFAOYSA-N,Nc1ccc2c(c1)ccc(=O)o2.Cl,-0.973607205,2.7584,197.618
,C6565,OSQHGAXCVAYZPZ-UHFFFAOYSA-K,COc1cccc(c1)C,-2.365060893,2.0036,122.164
,C5766,OSSQSXOTMIGBCF-UHFFFAOYSA-N,COc1ccoc2c1c(=O)c1c(c2OCC(C[NH2+]C(C)C)O)oc(c1)C.[Cl-],-2.872180278,-1.4767,397.85
,C2297,OSTVGDOKQXQLMU-UHFFFAOYSA-M,[O-]C(=O)c1ccccc1Nc1cccc(c1)C(F)(F)F.[O-]C(=O)c1ccccc1Nc1cccc(c1)C(F)(F)F.[O-]C(=O)c1ccccc1Nc1cccc(c1)C(F)(F)F.[Al+3],-6.224019802,8.6565,867.647
,C389,OSVIDGCVOGPEOK-UHFFFAOYSA-N,CCCCCCCC#C,-4.2399998,2.9801,124.223
,C5763,OSVWSAJDSWJMAA-UHFFFAOYSA-N,CCCC1(OC(=O)[N-]C1=O)c1ccccc1.[Na+],-2.873214392,2.063,241.218
,C2971,OSWPMRLSEDHDFF-UHFFFAOYSA-N,CCC1(CC(C)C)C(=O)NC(=O)NC1=O,-5.142154201,1.4525,212.246
,C5059,OSZNNLWOYWAHSS-UHFFFAOYSA-M,CCCc1cc(C)ccc1OCC(CO)O,-3.342229102,1.6795,224.296
,C954,OTAFHZMPRISVEM-UHFFFAOYSA-N,COC(=O)c1ccccc1O,-2.3399999,1.1788,152.147
,C6974,OTCCIMWXFLJLIA-BYPYZUCNSA-N,O=C(N(C)C)Oc1cccc(c1)[N+](C)(C)C.COS(=O)(=O)[O-],-2.105948081,2.1175,334.389
,C7910,OTCCTHBQSGSBNA-UHFFFAOYSA-N,O=c1ccoc2c1cccc2,-1.446448383,1.793,146.143
,C9810,OTDJAMXESTUWLO-UUOKFMHZSA-N,OC(=O)C[C@@H](C(=O)O)NC(=O)C,0.756614655,-0.5587,175.139
,C2289,OTEKOJQFKOIXMU-UHFFFAOYSA-N,ClCCN(c1ccc(cc1)OC(=O)c1cccc(c1)[N+](=O)[O-])CCCl,-6.253040071,4.6212,383.226
,C7175,OTFFCAGPSWJBDK-UHFFFAOYSA-N,OC[C@H]1O[C@H]([C@@H]([C@@H]1O)O)n1cnc2c1[nH]c(N)nc2=S,-1.975877483,-0.7362,299.306
,C2758,OTIVPWAWDWVOBT-UHFFFAOYSA-N,ClC(c1ccc(cc1)C(Cl)(Cl)Cl)(Cl)Cl,-5.426737631,5.34,312.835
,C8252,OTJOZBNDDQBXQC-UHFFFAOYSA-M,Nc1cccc2c1[nH]nc2,-1.127842578,1.7263,133.151
,C3031,OTKXWJHPGBRXCR-UHFFFAOYSA-N,COc1ccc2c(c1)CC[NH+](C2CCc1ccc(cc1)Cl)C.[Cl-],-5.069790168,1.6665,352.298
,C8186,OTLNPYWUJOZPPA-UHFFFAOYSA-N,CC[N+](CCCOC(=O)C(c1ccccc1)(c1ccccc1)O)(C)C.[Cl-],-1.202638889,-0.0439,377.905
,C374,OTMLATMCCJDRRG-UHFFFAOYSA-N,COP(=S)(Oc1ccc(cc1Cl)[N+](=O)[O-])OC,-4.3099999,4.3181,297.653
,C778,OTMLGCBMOMNGCV-UHFFFAOYSA-N,OC(=O)c1ccc(cc1)[N+](=O)[O-],-2.8,1.8162,167.119
,C5050,OTMSDBZUPAUEDD-UHFFFAOYSA-N,CC1CCCCN1CCCOc1ccccc1,-3.346827812,3.2678,233.349
,C5848,OTSKHUNLOQPIGN-UHFFFAOYSA-N,COc1cc(cc(c1)[N+](=O)[O-])[N+](=O)[O-],-2.813799798,2.558,198.133
,C1286,OTTZHAVKAVGASB-HYXAFXHYSA-N,CC,-1.36,1.0262,30.069
,C9061,OTUQTLCXMLMMOH-UHFFFAOYSA-N,CC1C(=O)N(C)C(=O)N(C1=O)C,-0.094157327,-0.4513,170.166
,C485,OTVAEFIXJLOWRX-NXEZZACHSA-N,CCCC/C=C\C,-3.8199999,2.7527,98.1861
,C5635,OTVAEFIXJLOWRX-UWVGGRQHSA-N,OCCOc1cc(ccc1C(=O)NC)c1ccccc1,-2.952032793,2.4752,271.311
,C1700,OTVCBBXLGYYSNC-UHFFFAOYSA-N,OC[C@H]([C@@H](c1ccc(cc1)S(=O)(=O)C)O)NC(=O)C(Cl)Cl	,-2.15 ,1.876,356.222
,C1022,OTXSBWFUHZIFLR-UHFFFAOYSA-N,OC[C@@H]([C@H](c1ccc(cc1)S(=O)(=O)C)O)NC(=O)C(Cl)Cl,-2.1500001,1.876,356.222
,C7931,OTXYXYOEXXRCPM-UHFFFAOYSA-N,Cn1c(C)n[nH]c1=S,-1.430863129,0.7861,129.183