Name,Compound ID,InChIKey,SMILES,logS,logP,MW
,C3440,VXTWEDPZMSVFEF-UHFFFAOYSA-N,O[C@H]([C@H](C(=O)O)O)C(=O)O.CCC(CN1CC[C@@]23[C@H]([C@H]1Cc1c3cc(cc1)O)CCCC2)C,-4.590569308,2.312,463.564
,C6655,VXVJDURWORQZFX-UHFFFAOYSA-L,Cc1cc(O)c(cc1C)C,-2.309641647,2.3174,136.191
,C8274,VXYBMIFBKLATDR-ICDZXHCJSA-N,NNC(Cc1ccccc1)C,-1.115289763,2.1721,150.221
,C9444,VXZROHSBOPRPGT-UHFFFAOYSA-N,CC[N+](CCSSCC[N+](CC)(C)C)(C)C.[Br-].[Br-],0.370270405,-3.4316,426.318
,C3241,VYAGDYWTCWDKIS-UHFFFAOYSA-N,Oc1ccc2c(c1)[C@]13CCCC[C@H]3[C@@H](C2)N(CC1)CC#Cc1ccccc1,-4.814491855,4.4402,357.488
,C7213,VYCPPJUYLAXDGF-UHFFFAOYSA-N,OCC(CSc1ccc(cc1)C)O,-1.950925936,1.4403,198.282
,C2092,VYFLMMKRRGRSFX-UHFFFAOYSA-M,CCC(C(=O)O)Oc1c(I)cc(cc1I)I,-6.833160214,3.7424,557.89
,C4677,VYFLPFGUVGMBEP-UHFFFAOYSA-N,ClCC[NH+](CCOc1ccc(c(c1)C)C)CC.[Cl-],-3.618790264,-1.1702,292.245
,C9765,VYFYYTLLBUKUHU-UHFFFAOYSA-N,O=C1C=C([O-])C(=O)c2c1cccc2.[Na+],0.707440494,1.38,196.135
,C8617,VYGQXRZAHIZHQV-UHFFFAOYSA-N,COc1c(ccc(c1OC)OC)CN1CCNCC1.Cl.Cl,-0.779249701,2.9883,339.258
,C9855,VYMDGNCVAMGZFE-UHFFFAOYSA-N,NCCc1ccc(c(c1)O)O,0.8147951,1.2993,153.178
,C3024,VYMMCESYBCZZER-UHFFFAOYSA-N,Fc1ccc(cc1)C(=O)CCCN1CCC(CC1)(O)c1cccc(c1)C(F)(F)F.Cl,-5.071729115,5.5309,445.878
,C488,VYNAOUSMBOXWFE-UHFFFAOYSA-M,CCCCC1C(=O)N(N(C1=O)c1ccccc1)c1ccccc1,-3.8099999,3.9178,308.374
,C5856,VYOUHDLOIRJOSW-UHFFFAOYSA-N,Cn1c(=O)n(c2ccccc2)c(c(c1=O)N1CCCC1)C,-2.808969554,1.5098,285.341
,C3178,VYPFMCZCVQRZQJ-UHFFFAOYSA-N,CC[N+](Cc1ccccc1)(CCOCCC1CCC2CC1C2(C)C)CC.[Br-],-4.88761531,2.5262,438.485
,C6728,VYRWKGJBKMJWMF-UHFFFAOYSA-N,CCCC[C-]1C(=O)N(N(C1=O)c1ccccc1)c1ccccc1.[Na+],-2.258920026,3.8761,330.356
,C6679,VYSJWMOSNCCCOS-UHFFFAOYSA-N,N#CCNc1ccccc1C(=O)O,-2.28876815,1.39328,176.172
,C6319,VYVKHNNGDFVQGA-UHFFFAOYSA-N,CCC12OCC(CO1)(CO2)CC,-2.522603129,1.5236,172.222
,C4531,VYWWNRMSAPEJLS-MDWYKHENSA-N,N/C(=N\C1CCCCCC1)/CSS(=O)(=O)O,-3.702857893,3.3835,266.381
,C2576,VZDUQCJRCXCFKK-UHFFFAOYSA-N,COc1ccc(cc1)CC(N(CCCCOC(=O)c1ccc(c(c1)OC)OC)CC)C,-5.694401029,4.6025,429.549
,C2083,VZECTCSEONQIPP-UHFFFAOYSA-N,O=CC[C@H]1C[C@@H](C)[C@@H](O)/C=C/C=C/C[C@H](OC(=O)C[C@H]([C@@H]([C@H]1O[C@@H]1O[C@H](C)[C@H]([C@@H]([C@H]1O)N(C)C)O[C@@H]1O[C@@H](C)[C@@H]([C@](C1)(C)OC(=O)CC)OC(=O)CCC)OC)O)C,-6.854324914,3.1575,827.995
,C2429,VZGDMQKNWNREIO-UHFFFAOYSA-N,CN(CCCC1(OC(c2c1cccc2)(C)C)c1ccc(cc1)C(F)(F)F)C.Cl,-5.961766435,6.3581,413.904
,C7785,VZHYBDYSAGXDLU-OCIYDRMTSA-N,OC(=O)COc1cccc(c1)C,-1.538874883,1.4584,166.174
,C966,VZIVJQXNNVIFLG-UHFFFAOYSA-N,ClC(Cl)(Cl)Cl,-2.3099999,2.5529,153.823
,C4148,VZLSHAUEBAEMHM-UHFFFAOYSA-N,CC(CN1CC[C@@]23[C@H]([C@H]1Cc1c3cc(cc1)O)CCCC2)C.Br,-4.005018412,5.0026,380.362
,C4277,VZPIPJKBIZCCCK-UHFFFAOYSA-N,Cc1cccc(c1)C(c1ccccc1C)OCC[NH+](C)C.[Cl-],-3.899672524,-0.4421,319.869
,C2022,VZQSBJKDSWXLKX-UHFFFAOYSA-N,COc1cc(NC(CCCN(C)C)C)c2c(c1)cc1c(n2)ccc(c1)Cl,-7.099144977,5.2652,371.904
,C484,VZSXTYKGYWISGQ-UHFFFAOYSA-N,CCCCOc1ccc(c(c1)N(CC)CC)C(=O)OCC,-3.8399999,3.8884,293.401
,C6556,VZWXXKDFACOXNT-UHFFFAOYSA-N,Oc1cccc(c1)c1cccc(c1)O,-2.368000132,2.7648,186.207
,C4032,VZYCZNZBPPHOFY-UHFFFAOYSA-N,CN1CCC(CC1)N(c1ccccc1)Cc1ccccc1,-4.086451232,3.7253,280.407
,C2705,VZZFPHAKJNPXQY-UHFFFAOYSA-N,CCCOCCOC(=O)C1=C(C)NC(=C(C1c1cccc(c1)[N+](=O)[O-])C(=O)OCCOCCC)C,-5.500354247,4.6212,490.546
,C3501,WABYFRDCKCYZAZ-UHFFFAOYSA-N,CN1CCN(CC1)CCCN1c2ccccc2Sc2c1cc(cc2)S(=O)(=O)N(C)C,-4.537676168,4.1987,446.629
,C5358,WAECBMNQMWVHQC-UHFFFAOYSA-N,CCCC(C1(CC)C(=O)N(C)C(=O)N(C1=O)C)C,-3.128935787,1.7452,254.325
,C6158,WAEDMQMDOHQPFL-UHFFFAOYSA-N,CCCOc1ccc(cc1OC)C=CC(=O)NO,-2.619844068,2.3935,251.278
,C4655,WAFIYOULDIWAKR-UHFFFAOYSA-N,FC1C(F)(F)C(C(C1(F)F)(F)F)F,-3.634175075,2.5821,214.057
,C7660,WAGUALLVPHOILS-UHFFFAOYSA-N,ClCCN(C(C)C)CCCl,-1.617680254,2.1744,184.107
,C8475,WAGUNVVOQBKLDL-UHFFFAOYSA-J,CCC(c1ccccc1)(COC(=O)N)O,-0.92271508,2.0798,209.242
,C1846,WAJRCRIROYMRKA-UHFFFAOYSA-L,Clc1ccc(cc1Cl)CNCC1CCC(CC1)CNCc1ccc(c(c1)Cl)Cl.Cl.Cl,-8.436839231,9.3718,533.189
,C1914,WAOCXJLDAMRLHV-UHFFFAOYSA-N,O=S(=O)(c1ccc(cc1)NC(S(=O)(=O)[O-])CC(S(=O)(=O)[O-])c1ccccc1)c1ccc(cc1)NC(S(=O)(=O)[O-])CC(S(=O)(=O)[O-])c1ccccc1.[Na+].[Na+].[Na+].[Na+],-7.730914114,7.989,892.832
,C3087,WAPNOHKVXSQRPX-SSDOTTSWSA-N,N#Cc1ccccc1.N#Cc1ccccc1.[Cl-].[Cl-].[Pt+2],-5.004838523,-2.87794,472.227
,C5560,WAUDIBKITGHWMS-UHFFFAOYSA-N,Clc1ccc(nc1)OCCCCCN1CSCC1.Cl,-3.008514202,4.0303,323.282
,C1390,WAZJRDVLNOHWSD-UHFFFAOYSA-N,C[C@H](c1ccccc1)O,-0.92000002,1.7399,122.164
,C5115,WAZZTXCZNNAQDG-UHFFFAOYSA-N,CCCCOCC(OC(=O)C)COCCCC,-3.301642166,2.5515,246.343
,C4476,WBBHOISPYYYBTC-IDJJGHEZSA-N,N/C(=N\CC1CCCCCCC1)/CSS(=O)(=O)O,-3.746345201,4.0212,294.434
,C5346,WBBHOISPYYYBTC-SJFRDBBCSA-N,SCCNCCCCCOc1ccc(cn1)Cl.Cl,-3.137104446,3.9964,311.271
,C5370,WBBVXGHSWZIJST-RLQYZCPESA-N,OS(=O)(=O)O.C=C[C@H]1CN2CC[C@H]1C[C@H]2[C@@H](c1ccnc2c1cccc2)O.C=C[C@H]1CN2CC[C@H]1C[C@H]2[C@@H](c1ccnc2c1cccc2)O,-3.115062656,6.633,686.86
,C5371,WBCWFMFZMRFRLT-UHFFFAOYSA-N,OS(=O)(=O)O.C=C[C@H]1CN2CC[C@H]1C[C@@H]2[C@H](c1ccnc2c1cccc2)O.C=C[C@H]1CN2CC[C@H]1C[C@@H]2[C@H](c1ccnc2c1cccc2)O,-3.115062656,6.633,686.86
,C6896,WBDPNBDCQCWMSZ-UHFFFAOYSA-N,O=C1O[C@@H]2C[C@H]3C(=CC(=O)[C@H]([C@@]3([C@@H]3[C@@]42[C@@H](C1)C(=C)[C@H]([C@@]3(OC4)O)O)C)O)C,-2.154051457,0.0863,376.4
,C7506,WBDSDEWASQRXRJ-UHFFFAOYSA-L,OC(c1ccccc1)(C1CCCC1)CCN1CCCCC1.Cl,-1.732266402,4.6803,323.901
,C4349,WBDWTNWLWBQFJU-UHFFFAOYSA-N,OC(CN1CCN2C(C1)CCc1c2cccc1)Cc1ccccc1.Cl.Cl,-3.842653191,4.3339,395.366
,C9423,WBEJYOJJBDISQU-VKHMYHEASA-N,OCC[N+](CCOCC[N+](CCO)(CC)CC)(C)C.[Br-].[Br-],0.35828303,-6.0714,438.239
,C7000,WBERNRVMJQYKKR-UHFFFAOYSA-N,COc1ccc(cc1)c1nc(N)nc(n1)N,-2.086503778,1.874,217.227
,C930,WBEXQMNCOCWOMJ-UHFFFAOYSA-N,ClC[C@H](CBr)Br,-2.3800001,2.3836,236.333
,C2140,WBEZOZLFWDHDKW-UHFFFAOYSA-N,CN(c1ccc(cc1)Nc1c2ccccc2nc2c1cccc2)C,-6.689924547,5.2706,313.396
,C4747,WBGKWQHBNHJJPZ-LECWWXJVSA-N,CCCc1cccc(c1OCC(CO)O)Cl,-3.575747234,2.0245,244.715
,C5237,WBJINCZRORDGAQ-UHFFFAOYSA-N,CCCC(COC(=O)NCC(C)C)(CO)C,-3.215024109,2.5582,231.332
,C2646,WBJWBGGFIDYPPO-UHFFFAOYSA-N,OCC(=O)[C@@]12OC(O[C@@H]1C[C@@H]1[C@]2(C)C[C@H](O)[C@H]2[C@H]1CCC1=CC(=O)C=C[C@]21C)(C)C,-5.582203116,2.3267,416.507
,C1576,WBJZSYNORLRGOJ-UHFFFAOYSA-M,CCOC=O,0.15000001,0.8152,74.0785
,C2920,WBLXZPHICYCDGN-UHFFFAOYSA-N,COc1ccc2c(c1)n(CC[NH+](C)C)c1c2ccc(c1)Cl.[Cl-],-5.198094211,-0.395,339.259
,C8236,WBNPMYJLGASBPI-UHFFFAOYSA-N,CC([N+](CCOC(=O)C(c1ccccc1)(c1ccccc1)O)(C)C)C.[Cl-],-1.141224588,-0.0455,377.905
,C7523,WBUOVKBZJOIOAE-UHFFFAOYSA-N,CCCCOCC(COc1ccccc1)O,-1.723873322,2.243,224.296
,C2625,WBWUPLAUZIIRBV-UHFFFAOYSA-N,OC(=O)CCN1c2ccc(cc2Sc2c1cc(Cl)cc2)O,-5.618250583,4.188,321.779
,C6599,WBYRNUWFQADAPF-UHFFFAOYSA-N,N#Cc1cccc(c1)Cl,-2.345279631,2.21168,137.566
,C1979,WBYWAXJHAXSJNI-VOTSOKGWSA-N,CC(N(C(C)C)CCSCCOC(=O)N1c2ccccc2Sc2c1nccc2)C.Cl,-7.267191223,6.5399,468.076
,C7391,WCCUCVYMWMWXAG-UHFFFAOYSA-N,CCOc1nc(C)nc(n1)N,-1.824396343,0.7421,154.17
,C896,WCDSTFHSWVDGPD-CABZTGNLSA-N,OC(=O)/C=C/c1ccccc1,-2.48,1.7844,148.159
,C5921,WCIBOXFOUGQLFC-UHFFFAOYSA-N,CCC1C(=O)NC(=O)N(C1=O)C1CCCCC1,-2.766440187,1.6904,238.283
,C8019,WCIMWHNSWLLELS-UHFFFAOYSA-M,CN[C@H]([C@@H](c1ccccc1)OC(=O)C)C,-1.336994338,2.2896,207.269
,C3382,WCJFBSYALHQBSK-UHFFFAOYSA-N,Fc1ccc(cc1)C(=O)CCCN1CCC(CC1)C(=O)c1ccc(cc1)F,-4.650273628,4.4605,371.42
,C3955,WCJHPDVYERQRGZ-UHFFFAOYSA-N,CNC(=O)c1c(I)c(NC(=O)C)c(c(c1I)C(=O)[O-])I.[Na+],-4.136869485,1.6458,635.895
,C5574,WCLAXUCLVJWBAU-UHFFFAOYSA-N,CCC(=O)C(c1ccccc1)(c1ccccc1)CCN(C)C,-2.995649881,3.9035,295.419
,C8342,WCMMILVIRZAPLE-UHFFFAOYSA-M,CCN(C(=O)N1CCN(CC1)C)CC.Cl,-1.040024294,1.3734,235.754
,C5646,WCNLCIJMFAJCPX-UHFFFAOYSA-N,NC1=NCC(O1)CN1CCN(CC1)c1ccccc1Cl,-2.947058186,1.3143,294.78
,C172,WCOFJTWPHBKHTQ-UHFFFAOYSA-M,O[Sn](C1CCCCC1)(C1CCCCC1)C1CCCCC1,-5.5900002,5.9271,385.163
,C7635,WCORBEUIUCKPIG-UHFFFAOYSA-N,CCOC(=O)C1(CCN(CC1)C)c1ccccc1.Cl,-1.636764955,2.953,283.794
,C8895,WCRYUUHBSXHYJA-UHFFFAOYSA-N,CCN1C(CCCCCC[N+](CC)(CC)CC)CCC1C.[I-].I,-0.378616515,2.6263,552.359
,C5137,WCSFICOQZXHPAJ-UHFFFAOYSA-N,CN(CCC(c1cccc2c1cccc2)(C(=O)N)CCN(C)C)C,-3.284725224,3.1666,327.464
,C6977,WCVPFJVXEXJFLB-UHFFFAOYSA-N,SCCNCCOc1ccc(cn1)Br.Cl,-2.103731723,2.9352,313.642
,C5520,WCYZEFXIUWZKER-WLHGVMLRSA-N,O=C(Nc1ncco1)Nc1cccc(c1)Cl,-3.027620181,3.118,237.642
,C9211,WDAFRGGNLPDBNO-UHFFFAOYSA-N,NCCCC(=O)N,0.152184905,0.6112,102.135
,C5624,WDBIDLUYQMZRSF-UHFFFAOYSA-N,NC1c2ccccc2C=Cc2c1cccn2.OC(=O)/C=C/C(=O)O,-2.963220451,3.0256,324.331
,C7477,WDBNXBYLAMPADA-UHFFFAOYSA-N,CCCCC(CNCCSS(=O)(=O)O)CC,-1.752819655,3.8001,269.425
,C4450,WDCROVAUQRFURX-UHFFFAOYSA-N,Cc1ccc(cc1)C(c1ccccc1)OCC[NH2+]N1CCOCC1.[Cl-],-3.762517046,-1.1465,362.894
,C4936,WDCYWAQPCXBPJA-UHFFFAOYSA-N,CCCCC(COC(=O)N)(COC(=O)NNC(C)C)C,-3.432078746,3.3995,289.371
,C5418,WDECDYIZHLLLNN-UHFFFAOYSA-N,CCc1sc2=NC(=O)CNC(=c2c1)c1ccccc1F,-3.090689037,1.1199,288.34
,C976,WDECIBYCCFPHNR-UHFFFAOYSA-N,[O-][N+](=O)c1cccc(c1)[N+](=O)[O-],-2.29,2.5494,168.107
,C3650,WDEFPRUEZRUYNW-UHFFFAOYSA-L,Clc1ccc(cc1)C(c1ccccc1)N1CC2CCC(C1)N2C,-4.387267621,4.0836,326.863
,C33,WDFKMLRRRCGAKS-UHFFFAOYSA-N,c1ccc2c(c1)c1ccc3c(c1cc2)cccc3,-8.0600004,5.1462,228.288
,C6336,WDGQNNMGINPRQL-UHFFFAOYSA-N,C[N+](C1c2ccccc2c2c1cccc2)(CCCCCC[N+](C1c2ccccc2c2c1cccc2)(C)C)C.[Br-].[Br-],-2.51565498,2.2476,662.54
,C5157,WDIZLVLUDKKQLC-UHFFFAOYSA-N,Clc1cc(Cl)c2c(c1O)nccc2,-3.272838983,3.2472,214.048
,C4343,WDJUZGPOPHTGOT-IUTQCQAUSA-N,[NH3+]C1Cc2ccccc2Cc2c1cccc2.[Cl-],-3.848914283,-0.8795,245.747
,C2994,WDJUZGPOPHTGOT-XUDUSOBPSA-N,Cc1cccc(c1C(c1c(C)cccc1C)OCCOCC[NH+](C)C)C.[Cl-],-5.114697424,0.1913,391.975
,C197,WDLWHQDACQUCJR-ZAMMOSSLSA-N,O=C1OCC(=C1)[C@H]1CC[C@@]2([C@]1(C)CC[C@H]1[C@H]2CC[C@@H]2[C@]1(C)CC[C@@H](C2)O[C@@H]1C[C@H](O)[C@H]([C@@H](O1)C)O[C@@H]1C[C@H](O)[C@H]([C@@H](O1)C)O[C@@H]1C[C@H](O)[C@H]([C@@H](O1)C)O)O,-5.29,3.2473,764.939
,C2843,WDMDRQDYTJNZNG-UHFFFAOYSA-N,O=C1OCC(=C1)[C@H]1CC[C@]2([C@]1(C)CC[C@H]1[C@H]2CC[C@H]2[C@]1(C)CC[C@@H](C2)O[C@H]1C[C@H](O)[C@@H]([C@H](O1)C)O[C@H]1C[C@H](O)[C@@H]([C@H](O1)C)O[C@H]1C[C@H](O)[C@@H]([C@H](O1)C)O)O,-5.292568448,3.2473,764.939
,C7079,WDNBURPWRNALGP-UHFFFAOYSA-N,C/C=C/C1=C(C(=O)O)N2[C@H](SC1)[C@@H](C2=O)NC(=O)[C@@H](c1ccc(cc1)O)N,-2.050095458,1.7358,389.426
,C4110,WDQPAMHFFCXSNU-BGABXYSRSA-N,COc1ccccc1N1CCN(CC1)CC(OC(=O)C)COc1ccccc1C(=O)C,-4.039982672,3.0334,426.505
,C1316,WDRFFJWBUDTUCA-UHFFFAOYSA-N,Oc1ccc(c(c1)Cl)Cl,-1.25,2.699,163.001
,C2260,WDRXVEYXGAMZOX-UHFFFAOYSA-L,Clc1ccc(cc1)Nc1cc2nc3ccccc3n(c2c/c/1=N\C(C)C)c1ccc(cc1)Cl,-6.322660785,7.6112,473.396
,C2016,WDRYRZXSPDWGEB-UHFFFAOYSA-N,N/C(=N\CCCCCC/N=C(/N=C(/Nc1ccc(cc1)Cl)\N)\N)/N=C(/Nc1ccc(cc1)Cl)\N.CC(=O)O.CC(=O)O,-7.119572605,6.4656,625.551
,C7200,WDTNZRVRIDKXCF-UHFFFAOYSA-N,OC(=O)c1cc2ccccc2c(c1[O-])Cc1c([O-])c(cc2c1cccc2)C(=O)O.CC1CCN(CC1)C=CC=C/C=[N+]/1\CCC(CC1)C.CC1CCN(CC1)C=CC=C/C=[N+]/1\CCC(CC1)C,-1.960412021,11.664,909.205
,C2656,WDVSHHCDHLJJJR-UHFFFAOYSA-N,Clc1ccc(c(c1)Cl)Cn1nc(c2c1cccc2)C(=O)O,-5.565553946,4.0896,321.158
,C5732,WDZGGAFMGIOIQS-DHZHZOJOSA-N,OC(C[NH+]1CCC(CC1)(O)c1ccccc1)COc1ccccc1C(=O)C.[Cl-],-2.894109631,-0.2314,405.915
,C9457,WEAPVABOECTMGR-UHFFFAOYSA-N,Nc1ccc2c(c1)nc1c(c2)ccc(c1)N,0.378300387,3.7148,209.247
,C3629,WEAVUIXCKWTMNE-UHFFFAOYSA-N,O=C(c1ccccc1)/C=C/c1ccc(cc1)[N+](=O)[O-],-4.405738377,4.0141,253.253
,C6085,WEEGYLXZBRQIMU-WAAGHKOSSA-N,CCOC(=O)C(OC(=O)C)(CC(=O)OCC)CC(=O)OCC,-2.665278203,0.7578,318.32
,C8460,WEFMOIXWHANDPP-UHFFFAOYSA-N,CN1CCN(C1c1ccc(cc1)Cl)C,-0.934508757,2.0916,210.703
,C1185,WEHWNAOGRSTTBQ-UHFFFAOYSA-N,C[C@]12CC[C@H](CC1)C(O2)(C)C,-1.64,2.7441,154.249
,C2838,WEIVFXLGBXCVEF-UHFFFAOYSA-N,CCCCCCCC(=O)OC1C2C(CC1(C)C)C(=O)C13C2(C)C2(CO2)C(=O)C3O1,-5.299425698,2.9993,404.497
,C1492,WEJDYJKJPUPMLH-UHFFFAOYSA-N,CCCNCCC,-0.46000001,1.7869,101.19
,C7671,WEJZHZJJXPXXMU-UHFFFAOYSA-N,OCC1COC(O1)(CC)CC,-1.613633146,0.9104,160.211
,C7373,WELIVEBWRWAGOM-UHFFFAOYSA-N,CC(Cc1ccc(cc1)Cl)(N)C.Cl,-1.832148014,4.1221,220.139
,C205,WELIWWBEWVZBFS-OVAHNPOGSA-N,Clc1ccc(c(c1)Cl)c1ccccc1,-5.25,4.6604,223.098
,C8584,WEQAYVWKMWHEJO-UHFFFAOYSA-N,NCCC(=O)NCCSSCCNC(=O)CCN,-0.810973627,1.4802,294.437
,C3864,WESDBLALURHRDL-UHFFFAOYSA-N,CNC(=O)[C@]1(CC[C@H](c2c1cccc2)[NH+](C)C)c1ccccc1.[Cl-],-4.195249107,-0.907,344.878
,C7093,WETJYPOLZYXLQC-UHFFFAOYSA-L,CN1C(=O)CCS(=O)(=O)C1c1ccc(cc1)Cl,-2.039383959,2.6342,273.736
,C1488,WETMTSZNMMYKKX-UHFFFAOYSA-N,Cc1ncnc2c1nccn2,-0.47,0.7282,146.149
,C9291,WEUCDJCFJHYFRL-UHFFFAOYSA-N,CC[N+](CCOC(C[N+](CC)(CC)CC)C)(CC)CC.[I-].[I-],0.265737188,-2.8475,542.321
,C7998,WEVYAHXRMPXWCK-UHFFFAOYSA-N,OCC(CNc1ccccc1C(=O)N)O,-1.36132726,0.3239,210.23
,C4169,WEXRUCMBJFQVBZ-SSDOTTSWSA-N,CN1CCCN(CC1)C(c1ccc(cc1)Cl)c1ccccc1,-3.9905273,3.9427,314.852
,C1580,WEXRUCMBJFQVBZ-UHFFFAOYSA-N,CC#N,0.25999999,0.52988,41.0519
,C884,WEYTUUBWDDEAGG-UHFFFAOYSA-N,CCC[C@H](C1(CC)C(=O)NC(=O)NC1=O)C,-2.52,1.8426,226.272
,C6317,WEYVCQFUGFRXOM-UHFFFAOYSA-N,CCCC(C1(CC)C(=O)NC(=O)NC1=O)C,-2.522896659,1.8426,226.272
,C8114,WEZYGLVLIQZWQM-QXAKKESOSA-N,Nc1ccc2c(c1)CONC2,-1.256491666,1.7136,150.178
,C2923,WFECYQKJNWJCBA-UHFFFAOYSA-N,CN1CCN(CC1)CCCN1c2ccccc2Sc2c1cccc2,-5.193581531,3.8676,339.498
,C4039,WFENCVFYUBXRSH-UHFFFAOYSA-N,C=CCN1CC[C@@]23[C@H]([C@H]1Cc1c3cc(cc1)OP(=O)(O)O)CCCC2,-4.081811269,3.3404,363.388
,C5389,WFGZMQNAHMBGCI-UHFFFAOYSA-N,O=C(Nc1ccccc1)CN1CCCCC1,-3.107584145,2.1219,218.295
,C9081,WFJIVOKAWHGMBH-UHFFFAOYSA-N,[O-]C(=O)C.CCCCCCCCCCCC[n+]1c(C)cc(c2c1cccc2)N,-0.064795137,5.2762,386.571
,C7584,WFJKULNGRMDNJG-FJZULJNHSA-N,OCCN1CCSC1=Nc1ncc(s1)[N+](=O)[O-],-1.676093182,1.541,274.32
,C856,WFJNHVWTKZUUTR-ZDUAUTNDSA-N,CCCCCCc1ccc(cc1O)O,-2.5899999,3.2206,194.27
,C2480,WFKAJVHLWXSISD-UHFFFAOYSA-N,CC[NH+](CCO/[NH+]=C(/c1nccc2c1cc(OC)c(c2)OC)\c1ccc(c(c1)OC)OC)CC.[Cl-].[Cl-],-5.855986251,-4.9485,540.479
,C837,WFKPHYKFAOXUTI-UHFFFAOYSA-N,CC[C@@H]1CN2CC[C@H]1C[C@@H]2[C@H](c1ccnc2c1cccc2)O,-2.6300001,3.3265,296.407
,C8955,WFLFOFDFIHOEFA-UHFFFAOYSA-N,CC(C(=O)N)C,-0.28489334,0.828,87.1204
,C7004,WFLPPJLXJCKEGI-QOVZSLTQSA-N,CC(=O)Nc1ccccc1C(=O)N,-2.084455627,1.5172,178.188
,C8334,WFLSCFISQHLEED-UHFFFAOYSA-N,OCC(COc1ccc(cc1C)N)O,-1.056935657,0.8904,197.231
,C2011,WFNAKBGANONZEQ-UHFFFAOYSA-N,CCN(CC/C=C/1\c2ccccc2Sc2c1cc(Cl)cc2)CC.Br,-7.134055482,6.9263,424.825
,C5266,WFPKGPHTXIOMFI-UHFFFAOYSA-N,CC(C(c1ccccc1)(C#N)CC(N(C)C)C)C,-3.192169562,3.44418,244.375
,C5751,WFRBDWRZVBPBDO-UHFFFAOYSA-N,CN1CCN(CC1)C(c1ccc(cc1)Cl)c1ccccc1,-2.879202564,3.5526,300.826
,C3001,WFRKJMRGXGWHBM-UHFFFAOYSA-M,CN(CCCN1c2ccccc2NCc2c1cc(Cl)cc2)C,-5.108538899,4.5583,315.84
,C1484,WFSZWNRIAAJGQM-UHFFFAOYSA-N,CCCC(O)(C)C,-0.49000001,1.5574,102.175
,C8703,WFVXOSNUKDDNPO-UHFFFAOYSA-N,CCCCCCCCOS(=O)(=O)[O-].[Na+],-0.661842603,2.9045,232.273
,C3364,WFWKNGZODAOLEO-UHFFFAOYSA-N,Ic1ccc(nc1)SCCCCCN1CSCC1.Cl,-4.668124879,4.6948,430.799
,C5060,WFWLQNSHRPWKFK-UHFFFAOYSA-N,CCCc1cccc(c1OCC(CO)O)C,-3.342229102,1.6795,224.296
,C8054,WFXFYZULCQKPIP-UHFFFAOYSA-N,COc1ccc(cc1)CC(=O)C,-1.314143404,1.8267,164.201
,C7493,WFZKRNIMSVDNBU-UHFFFAOYSA-N,O=c1[nH]c(=O)n(cc1F)C1CCCO1,-1.74065354,-0.0153,200.167
,C6398,WFZSQGXGYLPWPC-UHFFFAOYSA-N,COc1cc2nc(nc(c2cc1OC)N)N1CCN(CC1)C(=O)c1ccco1.Cl,-2.476982672,3.1707,419.862
,C9501,WGCVOMFFZDPNMG-UHFFFAOYSA-N,OS(=O)(=O)O.O=C1N=C(N(C1)C)N.NCCc1c[nH]c2c1cc(O)cc2,0.411828041,1.3499,387.411
,C5107,WGECXQBGLLYSFP-SSDOTTSWSA-N,Clc1ccc(cc1)C(=O)Nc1ncccc1C,-3.305798756,3.3687,246.692
,C3102,WGJCBBASTRWVJL-UHFFFAOYSA-N,SCCNCCCCCOc1ncc(cc1Br)Br.Cl,-4.987797178,4.868,434.618
,C384,WGJHHMKQBWSQIY-UHFFFAOYSA-N,CC[C@H](C(C)C)C,-4.2800002,2.6885,100.202
,C9071,WGOLRGXJPQEOEH-UHFFFAOYSA-N,S=C1NCCS1,-0.080641061,0.9365,119.208
,C6077,WGPVGSNGYPUHBZ-PDGQHHTCSA-N,CCOC(=O)C1(CCCN(CC1)C)c1ccccc1,-2.667897653,2.5411,261.359
,C2271,WGQKYBSKWIADBV-UHFFFAOYSA-N,CNCC1CCC2(C1)c1ccccc1C=Cc1c2cccc1.Cl,-6.29294962,5.6689,325.875
,C5215,WGROOPOBLKUOMN-GQCTYLIASA-N,O=C1OCCN1/N=C\c1c(nc2n(c1=O)CCCC2)N1CCCCC1,-3.230830093,1.3589,345.396
,C1227,WGSVFWFSJDAYBM-BQYQJAHWSA-N,NCc1ccccc1,-1.53,1.8456,107.153
,C5680,WGTASENVNYJZBK-UHFFFAOYSA-N,[O-][N+](=O)c1ccc(o1)/C=C/C(=O)OCC,-2.924791677,2.2873,211.171
,C5669,WGUJDBLMJBJUQU-VKRLOHBMSA-N,C/C(=C\c1ccccc1)/[N+](=O)[O-],-2.933902655,2.8473,163.173
,C8532,WGUWGLFTDRGBSR-UHFFFAOYSA-N,COc1cc(CC(N)C)cc(c1OC)OC,-0.869436088,2.3024,225.284
,C4988,WGXCKFMVBAOIFH-UHFFFAOYSA-N,O=CC[C@H]1C[C@@H](C)C(=O)/C=C/C(=C/[C@@H]([C@H](OC(=O)C[C@H]([C@@H]([C@H]1O[C@@H]1O[C@H](C)[C@H]([C@@H]([C@H]1O)N(C)C)O)C)O)CC)CO)/C,-3.39306036,1.4024,597.737
,C2544,WGZDVOJTOGXGTK-LVEZLNDCSA-N,CCC(C(C(C[NH+](C)C)C)(c1ccccc1)c1ccccc1)OC(=O)CC.[Cl-],-5.745435069,0.4891,403.985
,C4217,WHCIYAMCNYHKDJ-UHFFFAOYSA-N,S=C=Nc1cccc(c1)Cl,-3.950738846,3.0743,169.631
,C2708,WHEBTEOWPNAKNI-UHFFFAOYSA-N,CN1CCN(CC1)CC1COC2(O1)c1ccccc1CCc1c2cccc1.OC(=O)/C=C/C(=O)O.OC(=O)/C=C/C(=O)O,-5.49695367,1.9485,596.625
,C5643,WHECQDVQLPVCRX-NSCUHMNNSA-N,NC(=O)NCCc1c(Cl)cccc1Cl,-2.949226077,3.2954,233.095
,C7216,WHGGYVWXXOHAQJ-UHFFFAOYSA-N,CN1CCN(CC1)C(=O)N(C(C)C)C(C)C.Cl,-1.949999543,2.1504,263.807
,C6278,WHHIPMZEDGBUCC-UHFFFAOYSA-N,N#C/C=C/c1ccc(cc1)C,-2.548454633,2.53178,143.185
,C3606,WHHJVZWAZFDIMO-UHFFFAOYSA-N,Clc1ccc2c(c1)c(c[nH]2)C1CCC[NH+]1Cc1ccccc1.[Cl-],-4.436879791,2.3145,347.282
,C5291,WHKUVVPPKQRRBV-UHFFFAOYSA-N,C=CCOC1=NS(=O)(=O)c2c1cccc2,-3.172692427,1.8545,223.248
,C5330,WHMDPDGBKYUEMW-UHFFFAOYSA-N,OS(=O)(=O)SCCNCCCOc1nc2ccccc2c(c1)C(F)(F)F,-3.143412838,4.6198,410.432
,C991,WHNRZMDIPJNSTO-WLHGVMLRSA-N,OC(=O)COc1ccc(cc1C)Cl,-2.23,2.1118,200.619
,C9175,WHOHXJZQBJXAKL-DFWYDOINSA-N,S=c1cccc[nH]1,0.097682883,1.7442,111.165
,C2405,WHQCHUCQKNIQEC-UHFFFAOYSA-N,C1CCN(CC1)CC1COC2(O1)c1ccccc1OCc1c2cccc1.OC(=O)/C=C/C(=O)O,-6.011786949,3.3311,467.511
,C9690,WHTBVLXUSXVMEV-UHFFFAOYSA-N,COC(=O)[C@H](CS)N.Cl,0.64733897,0.9188,171.646
,C2153,WHTRVMDSXBPLMD-UHFFFAOYSA-N,CCc1oc2c(c1C(=O)c1cc(Br)c(c(c1)Br)O)cccc2,-6.626588273,5.4568,424.083
,C491,WHTVZRBIWZFKQO-UHFFFAOYSA-N,Cc1cc(ccc1NS(=O)(=O)C(F)(F)F)S(=O)(=O)c1ccccc1,-3.8,5.3239,379.375
,C8675,WIAALPGBRQCFDY-UHFFFAOYSA-N,OCC(COC(C=C)Br)O,-0.713735462,0.2632,211.054
,C3558,WIBADEXUNPVVIP-UHFFFAOYSA-N,CCN(CCCC(Nc1ccnc2c1ccc(c2)Cl)C)CC,-4.478858511,4.8836,319.872
,C5374,WIDHRBRBACOVOY-UHFFFAOYSA-N,N/C(=N\CCSC1CCCCC1)/CSS(=O)(=O)O,-3.112778776,3.7266,312.472
,C8482,WIDMDEHGDAFXAJ-HXUWFJFHSA-N,CNCCc1ccccc1.Cl,-0.914543061,2.6414,171.667
,C79,WIEGFTCXYMUOEJ-ODQZHCRPSA-L,Clc1ccc(cc1Cl)c1ccc(c(c1Cl)Cl)Cl,-7.0500002,6.6206,326.433
,C556,WIFUNPSFTQIUIF-UHFFFAOYSA-N,Nc1ccc(cc1)[S@@](=O)N(c1onc(c1C)C)C(=O)C,-3.5899999,3.3962,293.341
,C7323,WIGLWDYSZRNQOI-UHFFFAOYSA-N,CN([C@@H]1C(=O)C(=C([C@@]2([C@H]1[C@@H](O)[C@H]1C(=C([O-])c3c([C@@]1(C)O)cccc3[O-])C2=O)O)O)C(=O)N)C.[Na+].[Na+].O.O,-1.870610465,-0.5178,540.428
,C5783,WIILDCMHDCIZQR-UHFFFAOYSA-N,CCCCOCCNc1ccccc1C(=O)N,-2.862946279,2.7874,236.31
,C6689,WIIZEEPFHXAUND-UHFFFAOYSA-N,CCC(c1ccccc1)(C(=O)N)CCN(C)C,-2.279946874,2.4717,234.337
,C2988,WIIZWVCIJKGZOK-IUCAKERBSA-N,Clc1ccc(nc1)SCCCCCCCCN1CCSC1.Cl,-5.125035151,5.9139,381.427
,C5749,WIIZWVCIJKGZOK-RKDXNWHRSA-N,COc1cc(cc(c1OC)OC)C(=O)NCc1ccc(cc1)OCCN(C)C.Cl,-2.880897409,3.7757,424.918
,C1030,WIKXJKUZYYOTBP-UHFFFAOYSA-N,OC[C@@H]([C@H](c1ccc(cc1)[N+](=O)[O-])O)NC(=O)C(Cl)Cl,-2.1099999,1.8231,323.129
,C1701,WIKYUJGCLQQFNW-UHFFFAOYSA-N,OC[C@H]([C@@H](c1ccc(cc1)[N+](=O)[O-])O)NC(=O)C(Cl)Cl	,-2.11 ,1.8231,323.129
,C4659,WIMYYXRANPYBED-UHFFFAOYSA-N,CCCCC(COC(=O)N)(COC(=O)NC(C)C)C,-3.633501683,3.504,274.357
,C357,WINXNKPZLFISPD-UHFFFAOYSA-M,CN1CCN(CC1)CCCN1c2ccccc2Sc2c1cc(Cl)cc2,-4.4000001,4.521,373.943
,C9184,WIOLAWBMDVBVDE-UHFFFAOYSA-N,CNN=CC,0.11048143,0.6024,72.109
,C8386,WIOOTMZLCZPTDW-UHFFFAOYSA-N,O=C1[N-]S(=O)(=O)c2c1cccc2.[Na+],-0.989879725,1.3141,205.166
,C6720,WIQJRGFUJZSBKC-UHFFFAOYSA-N,OS(=O)(=O)SCCNCCCCCc1ccccc1,-2.264581729,3.9967,303.441
,C8982,WIQVPGFUYBUXNC-UHFFFAOYSA-N,NCCc1ccc(c(c1)OC)OC.Cl,-0.251484614,2.7073,217.693
,C4809,WISVKXCNQOLCJL-UHFFFAOYSA-N,[O-][N+](=O)c1cn(c(n1)C)CCI,-3.536034937,2.0579,281.051
,C9191,WITMQGCBPSZFPH-UHFFFAOYSA-M,COCc1c(CO)cnc(c1O)C.Cl,0.119136998,1.5363,219.665
,C4326,WIWDJXLMKWROGP-UHFFFAOYSA-N,O=C(C(C)(C)C)COc1ccc(cc1)Cl,-3.854392258,3.334,226.699
,C5091,WIWGOIWXMIGNHQ-UHFFFAOYSA-N,CCC(C1(CC(=C)Br)C(=O)NC(=NC1=O)[O-])C.[Na+],-3.318943132,1.5249,325.134