Name,Compound ID,InChIKey,SMILES,logS,logP,MW
,C6475,FKBLZUSEOXHUJZ-UHFFFAOYSA-L,CC(=O)Oc1cc(ccc1OC(=O)C)C(=O)O,-2.430971956,1.2354,238.194
,C8888,FKEDUFRSQFFLHR-VSYPDCRNSA-N,CC1C[N+]2(COC[N+]34CCC(CC3)C(C4)C)CCC1CC2.[I-].[I-],-0.388763883,-3.4034,548.284
,C8813,FKGLMTGUMNVSTC-UHFFFAOYSA-N,CCOc1ccc2c3c1O[C@@H]1[C@@]43CCN([C@H](C2)[C@@H]4C=C[C@@H]1O)C.Cl.O.O,-0.489547895,2.5025,385.882
,C7060,FKHLBAOXRDYSRQ-UHFFFAOYSA-M,CCOC(=O)N(P(=O)(N1CC1(C)C)N1CC1(C)C)OC(=O)C,-2.05600028,2.0953,333.321
,C8857,FKJIJBSJQSMPTI-CAOXKPNISA-M,[O-]S(=O)CCCCSSCCNC(=O)C.[Na+],-0.438061544,2.4198,293.402
,C8389,FKMYOBZNVAVPDG-UHFFFAOYSA-L,[O-]C(=O)CC[C@H]([C@H]1CC[C@@H]2[C@]1(C)C(=O)C[C@H]1[C@H]2C(=O)C[C@H]2[C@]1(C)CCC(=O)C2)C.[Na+],-0.987409557,2.7386,424.506
,C9454,FKOFBBOQSMUYHD-UHFFFAOYSA-N,CC[N+](CCOC(C[N+](CC)(C)C)C)(CC)CC.[Br-].[Br-],0.376467487,-3.6277,420.267
,C6297,FKOPCVJGLLMUNP-UHFFFAOYSA-N,CCCC(N1CCCC1)Cc1ccccc1.Cl,-2.537048086,4.2335,253.811
,C6006,FKPSBYZGRQJIMO-UHFFFAOYSA-M,CC(=O)O.CCCCCCCCCCN,-2.710825272,3.877,217.348
,C9253,FKRCODPIKNYEAC-UHFFFAOYSA-N,CC[N+](Cc1ccccc1)(CC)CC.[OH-],0.213188429,2.8863,209.328
,C1461,FKSJEYYFXJIKAK-UHFFFAOYSA-N,CCOC(=O)CC,-0.66000003,0.9595,102.132
,C5506,FLAYZKKEOIAALB-UHFFFAOYSA-N,c1ccc(cc1)CCNCc1ccc2c(n1)cccc2.Cl.Cl,-3.035438806,5.562,335.271
,C5189,FLDRLXJNISEWNZ-UHFFFAOYSA-N,BrCC(=O)c1ccc(cc1)Cl,-3.252988834,2.9176,233.49
,C3069,FLDSOXFRYVOGFK-UHFFFAOYSA-N,Cc1c2ccccc2nc2c1cccc2,-5.02129941,3.6964,193.244
,C8481,FLEBQACKYGHXTR-UHFFFAOYSA-N,[O-][N+](=O)c1ncc([nH]1)[N+](=O)[O-],-0.915556467,1.2725,158.072
,C4768,FLEXBPIGXXHGPR-UHFFFAOYSA-N,CN1CCN(CC1)C(c1ccc(cc1)Cl)c1ccccc1.Cl.Cl,-3.563976382,5.1566,373.748
,C5262,FLHDCEZDRGEYQL-UHFFFAOYSA-N,COc1cc(cc(c1C(=O)OC(C)C)OC)Cc1cnc(nc1N)N,-3.194580158,2.9766,346.381
,C9816,FLHRAPZVGFZSQD-UHFFFAOYSA-N,CNCCSS(=O)(=O)O,0.76642268,1.2135,171.238
,C3449,FLKPEMZONWLCSK-UHFFFAOYSA-N,NC(=O)C(c1cccc2c1cccc2)(CCN1CCCCC1)C,-4.581888542,4.097,310.433
,C948,FLKWNFFCSSJANB-UHFFFAOYSA-N,CCOC(=O)c1ccccc1C(=O)OCC,-2.3499999,2.04,222.237
,C2127,FLNXBVJLPJNOSI-UHFFFAOYSA-N,CCC(=O)n1c(=O)n(c2c1cccc2)C1CCN(CC1)CCC(c1ccccc1)(c1ccccc1)C#N,-6.73005063,5.32798,492.611
,C3119,FLOSMHQXBMRNHR-DAXSKMNVSA-N,Clc1ccc(cc1)C(c1ccccc1)OCCN1CCCCC1,-4.962882983,4.8698,329.864
,C7379,FLOSMHQXBMRNHR-QPJJXVBHSA-N,CC(=O)/N=c/1\sc(nn1C)S(=O)(=O)N,-1.829329526,0.3573,236.272
,C1136,FLPKLUXQXNQTEB-UHFFFAOYSA-N,CC(=O)/N=c\1/sc(nn1C)S(=O)(=O)N,-1.83,0.3573,236.272
,C5093,FLVIGYVXZHLUHP-UHFFFAOYSA-N,CCCCCCCCCC(NCCSS(=O)(=O)O)C,-3.317365384,5.1129,311.504
,C1251,FLWFHHFTIRLFPV-UHFFFAOYSA-N,CCNC(=S)NCC,-1.46,1.2721,132.227
,C3940,FLYYDGHNISORAD-UHFFFAOYSA-N,CCCCC(C(=O)N(c1ccccc1)Nc1ccccc1)C(=O)O,-4.147135117,4.0107,326.39
,C6080,FMCUPJKTGNBGEC-UHFFFAOYSA-N,CCN(CCN1C(=O)CN(C1=O)N=Cc1ccc(o1)[N+](=O)[O-])CC,-2.66712607,1.5267,337.331
,C9932,FMGADNVMWHSJDJ-UHFFFAOYSA-N,Nn1cnnc1,1.075296961,-0.4269,84.08
,C8783,FMGSKLZLMKYGDP-LQAQHOFVSA-N,O=C1CC(C)(C)CC(=O)N1C,-0.539605336,0.7293,155.194
,C425,FMINYZXVCTYSNY-UHFFFAOYSA-N,O[C@H]1CC[C@]2(C(=CC[C@@H]3[C@@H]2CC[C@]2([C@H]3CCC2=O)C)C1)C,-4.1199999,3.8792,288.424
,C619,FMJZJKQGQIXNDY-UHFFFAOYSA-N,CN(C(=O)NC(c1ccccc1)(C)C)c1ccccc1,-3.3499999,4.1586,268.353
,C3454,FMKMKBLHMONXJM-UHFFFAOYSA-N,Nc1ccc2c(c1)cc1c(n2)cc(cc1)Cl,-4.580351812,4.2048,228.677
,C8455,FMKOJHQHASLBPH-UHFFFAOYSA-N,Cc1nn(c(c1)N)c1ccccc1,-0.937565506,2.3441,173.214
,C1037,FMLSQAUAAGVTJO-UHFFFAOYSA-N,CC(I)C,-2.0899999,1.8298,169.992
,C1389,FMMWHPNWAFZXNH-UHFFFAOYSA-N,CC(CC(O)(C)C)C,-0.92000002,1.8034,116.201
,C30,FMMYTRQXHORTCU-UHFFFAOYSA-N,c1ccc2c(c1)c1ccc3c4c1c(c2)ccc4ccc3,-8.1899996,5.7372,252.309
,C8861,FMQVDNFQKSRNAK-UHFFFAOYSA-N,ClCCOS(=O)(=O)C,-0.433136336,1.2822,158.604
,C4481,FMRGPMCASSSEHQ-UHFFFAOYSA-N,Brc1ccc(nc1)OCCCCCCCNCCSS(=O)(=O)O,-3.739826478,4.7707,427.377
,C7764,FMRWQLAJBBKXDM-UHFFFAOYSA-N,[O-][N+](=O)c1ccc(cc1)C1NCCS1,-1.55137112,2.7818,210.253
,C8572,FMTDIUIBLCQGJB-KXPGYZOPSA-N,CC1(C)CCC(N1)(C)C,-0.821291712,2.2558,127.227
,C883,FMWLUWPQPKEARP-UHFFFAOYSA-N,CN([C@@H]1C(=C(C(=O)N)C(=O)[C@]2([C@H]1C[C@H]1C(=C2O)C(=O)c2c([C@@H]1O)c(Cl)ccc2O)O)O)C,-2.52,0.9652,464.853
,C1224,FMXOZKPOPWMHIG-UHFFFAOYSA-N,ClC(Br)Cl,-1.54,2.1425,163.829
,C3619,FNCVZYRPXOZNSM-UHFFFAOYSA-N,C[NH+](CCOC(c1c(C)cc(cc1C)C)c1ccccc1)C.[Cl-],-4.419812685,-0.1337,333.895
,C1905,FNDMLHFDPXQFNX-BTJKTKAUSA-N,O=C(c1ccccc1)Nc1ccc(c2c1C(=O)c1ccccc1C2=O)Cl,-7.843278409,4.4407,361.778
,C2771,FNEPSTUXZLEUCK-UHFFFAOYSA-N,CN1CCN(CC1)C1Cc2ccccc2Sc2c1cccc2F.OC(=O)/C=C\C(=O)O,-5.407343034,3.4091,444.519
,C7231,FNFPHNZQOKBKHN-GFLPKIQLSA-N,O1CCOCCOc2c(OCCOCC1)cccc2,-1.93448063,1.5076,268.306
,C177,FNIPRNMPSXNBDI-UHFFFAOYSA-N,O=C(CC(C)(C)C)OCC(=O)[C@@]1(O)CC[C@@H]2[C@]1(C)C[C@@H](O)[C@H]1[C@H]2CCC2=CC(=O)CC[C@]12C,-5.5100002,3.7687,460.603
,C7544,FNJOIKRNARYXHW-UHFFFAOYSA-N,O=C1NC(=O)CC2(C1)CCCCC2,-1.711699409,1.7023,181.232
,C7479,FNKYFJUHWHKUSL-UHFFFAOYSA-N,CNC1(C)C2CCC(C1C)C2,-1.752485033,2.4214,153.265
,C3423,FNOBLETXVSZOGS-UHFFFAOYSA-N,C[NH2+]CCOc1ccc(cc1)CNC(=O)c1ccc(c(c1)OCC)OCC.[Cl-],-4.607320164,-0.6191,408.919
,C8976,FNQQBFNIYODEMB-UHFFFAOYSA-N,CCOC(=O)CCCN(C)C,-0.254098548,0.8913,159.226
,C3863,FNTDGCHSJHAFAV-UHFFFAOYSA-N,Cc1cc2CCCS(=O)(=O)c2cc1S(=O)(=O)N,-4.19534008,3.2242,275.345
,C7738,FNUHDZQFFYGALC-UHFFFAOYSA-N,CN1CCCC1c1c[nH]c2c1cccc2,-1.574107168,2.8725,200.28
,C5953,FNUKUPRWKAMWNL-UHFFFAOYSA-N,COc1cc(cc(c1C(=O)N(C)C)OC)Cc1cnc(nc1N)N,-2.747119922,2.1132,331.37
,C5805,FNVKGDRMUFQULX-UHFFFAOYSA-L,FC(Oc1cccc(c1)NC(=O)c1cccnc1)F.Cl,-2.848709386,3.8103,300.688
,C9399,FNWNGQGTFICQJU-UHFFFAOYSA-N,CC(C[N+](C)(C)C)OCC[N+](C)(C)C.[I-].[I-],0.338976204,-5.1881,458.162
,C5132,FNYLWPVRPXGIIP-UHFFFAOYSA-N,CC(c1ccc(c(c1O)C(=O)O)C)C,-3.28831631,2.5222,194.227
,C923,FNZNYVDWBOFGOR-UHFFFAOYSA-N,Nc1nc(N)c2c(n1)nc(c(n2)c1ccccc1)N,-2.4000001,2.577,253.263
,C8039,FOANIXZHAMJWOI-UHFFFAOYSA-N,CCN1CC2CCC(C1)N2C(=O)CC,-1.320241455,0.9673,196.289
,C245,FOCAUTSVDIKZOP-UHFFFAOYSA-N,CC(OC(=O)C(c1ccc(cc1)Br)(c1ccc(cc1)Br)O)C,-4.9299998,4.3991,428.115
,C1635,FOCVUCIESVLUNU-UHFFFAOYSA-N,OC(=O)CCl,0.93000001,0.3098,94.497
,C9115,FODBVCSYJKNBLO-UHFFFAOYSA-N,S=P(N1CC1)(N1CC1)N1CC1,0.001793448,0.622,189.218
,C7789,FOEQHWOACOYFPK-UHFFFAOYSA-N,COc1cccc(c1OC)C(=O)O,-1.535312477,1.402,182.173
,C7249,FOGDPGQSHLLYIK-XYQGXRRISA-N,CCC1(C(=O)NC(=O)N(C1=O)CN1CCOCC1)c1ccccc1,-1.9248196,0.9071,331.366
,C9116,FOHWXVBZGSVUGO-UHFFFAOYSA-N,CN[C@H]1[C@H](O)[C@H]2O[C@@H]3O[C@H](C)CC(=O)[C@@]3(O[C@@H]2[C@H]([C@H]1O)NC)O.Cl.Cl,0.001851014,-0.5398,405.271
,C7575,FOICLFXMGGCWBZ-UHFFFAOYSA-N,S=c1[nH]nc(o1)c1ccccc1,-1.687448548,2.3992,178.211
,C7734,FOIPWTMKYXWFGC-UHFFFAOYSA-N,COP(=O)(OP(=O)(OC(C)C)OC(C)C)OC,-1.575063646,3.362,290.188
,C9764,FOMASEJNMWIVAC-XDJHFCHBSA-N,NC(=N)N(CCOP(=O)(O)O)C,0.705245075,-0.279,197.13
,C3203,FOMOAEUYWZDTNS-PMUMKWKESA-N,CNC(=O)O/N=C/1\c2ccccc2CCc2c1cccn2,-4.869409293,2.6795,281.309
,C5484,FOOCWHCIEFPXAT-UHFFFAOYSA-N,COc1ccc2c(c1O)[C@]13CCCC[C@H]3[C@@H](C2)N(CC1)C,-3.048558204,3.0269,287.397
,C4734,FOPVWIQJESKKKW-UHFFFAOYSA-N,CCC(=O)OC1(CCN(CC1)C)C1CCCCC1.Cl,-3.584217348,3.7242,289.841
,C2169,FOQGDCBIMVXYSR-UHFFFAOYSA-N,OC(=O)C(=O)O.CCC(NCC1COC2(O1)c1ccccc1CCc1c2cccc1)C,-6.559051074,3.3363,427.49
,C2217,FOSXBINENBQXPD-UHFFFAOYSA-L,CCN(CCOC(=O)N1c2ccccc2Sc2c1cccc2)CC.Cl,-6.435527009,5.6347,378.916
,C9382,FOXFZRUHNHCZPX-UHFFFAOYSA-N,CC(C[N+](C)(C)C)OC(C[N+](C)(C)C)C.[I-].[I-],0.325879536,-4.7996,472.188
,C986,FOXWLWYGXYMRQO-UHFFFAOYSA-N,CSc1nnc(c(=O)n1N)C(C)(C)C,-2.25,0.9527,214.288
,C3804,FOYHNROGBXVLLX-UHFFFAOYSA-N,CCC(=O)c1ccc(cc1)OCC(CN1CCN(CC1)c1ccc(c(c1)C)C)O,-4.248029138,3.4609,396.522
,C947,FOYWNSCCNCUEPU-UHFFFAOYSA-N,CCc1cccc(c1N)CC,-2.3499999,2.9748,149.233
,C7106,FPAFSTKWKCXYFZ-UHFFFAOYSA-N,OCCN(c1nc2cnc(nc2c(n1)N1CCCCC1)N(CCO)CCO)CCO,-2.033067411,-0.9429,421.494
,C4162,FPGUWEPNTKKYLI-UHFFFAOYSA-N,C[NH2+]CCC[NH+]1Cc2ccccc2Nc2c1cccc2.[Cl-].[Cl-],-3.995293284,-3.2413,340.291
,C6780,FPHIGGMDBMWPDB-UHFFFAOYSA-N,C[NH+](CCC1(c2ccccc2)C(=O)Oc2c1cccc2)C.[Cl-],-2.228013795,-1.5697,317.81
,C2893,FPHLBGOJWPEVME-UHFFFAOYSA-N,c1ccc(cc1)C[NH+]1C=C(c2c1cccc2)CCc1ccncc1.[Cl-],-5.237317223,2.3587,348.869
,C5793,FPKATRSBAJEXMW-UHFFFAOYSA-M,CC(=C)CNc1ccc(cc1)C(C(=O)O)C,-2.854576466,2.9357,219.28
,C2253,FPKXTKCPROWUMS-UHFFFAOYSA-N,COc1cc(C[N+](CCOCCC2CCC3CC2C3(C)C)(CC)CC)c(cc1OC)Br.[Br-],-6.33337359,3.3059,577.433
,C2205,FPPCQURAUSZVBZ-UHFFFAOYSA-N,CCCCOc1ccc(cc1)OCC(=O)N(c1cc(OC)ccc1OC)CCN(CC)CC.Cl,-6.471938743,5.4385,495.051
,C2591,FPPNZSSZRUTDAP-UWFZAAFLSA-N,CCCCCCCOc1ccccc1NC(=O)OCCN1CCCCC1.Cl,-5.676198044,5.8831,398.967
,C5681,FPPVUXBASWMIBH-UHFFFAOYSA-N,O=C(C(c1ccccc1)C(=O)O)N[C@@H]1C(=O)N2[C@@H]1SC([C@@H]2C(=O)O)(C)C,-2.923773427,0.8153,378.4
,C6930,FPVKHBSQESCIEP-JQCXWYLXSA-N,CCN(CCOC(=O)c1cccc(c1OC)OC)CC.Cl,-2.134811637,3.0044,317.808
,C9597,FPVRUILUEYSIMD-YCIUFLETSA-N,OC[C@H]1O[C@H](C[C@@H]1O)n1cnc2c1NC=NC[C@H]2O,0.571423018,-1.4154,268.269
,C253,FPWIQSIIEYYWPP-UHFFFAOYSA-N,OCC(=O)[C@]1(OC(=O)C)[C@H](C)C[C@@H]2[C@]1(C)C[C@@H](O)[C@]1([C@H]2CCC2=CC(=O)C=C[C@]12C)F,-4.9000001,2.4665,434.498
,C7527,FPWNLURCHDRMHC-UHFFFAOYSA-N,OC(CN1CCCCC1)COc1cccc(c1)C(=O)C,-1.722890804,2.0527,277.359
,C215,FPYATAHHYUQBFA-UHFFFAOYSA-M,Clc1ccc(cc1)c1ccccc1,-5.1999998,4.007,188.653
,C8789,FQENQNTWSFEDLI-UHFFFAOYSA-J,CN(c1ccccc1)C=CC=C/C=[N+](/c1ccccc1)\C.[Cl-],-0.53295433,1.2415,312.836
,C8799,FQGLMGYMTSCAPM-UHFFFAOYSA-N,[O-]P(=O)(OP(=O)([O-])[O-])[O-].[Na+].[Na+].[Na+].[Na+],-0.514093916,0.9412,265.902
,C7626,FQGSDDOBFKGGOF-UHFFFAOYSA-N,Clc1ccc(nc1)OCCCCNCCSS(=O)(=O)O,-1.642125728,3.4913,340.847
,C5702,FQISKWAFAHGMGT-SGJOWKDISA-M,SCCNCCCCCOc1nccc(c1)C.Cl,-2.908574634,3.6514,290.853
,C3799,FQIUCPGDKPXSLL-UHFFFAOYSA-N,[O-]C(=O)CCC(=O)OCC(=O)[C@@]1(O)CC[C@@H]2[C@]1(C)C[C@H](O)[C@H]1[C@H]2C[C@@H](C2=CC(=O)C=C[C@]12C)C.[Na+],-4.251902456,0.8846,496.525
,C7132,FQJXITFHANYMET-UHFFFAOYSA-N,OC(=O)c1cc(Br)cnc1,-2.01980911,1.5423,202.005
,C8314,FQNNIZDWNAHSKK-UHFFFAOYSA-N,CCCCCOCC(CO)O,-1.083023693,0.5464,162.227
,C2122,FQNXWYNWKZQFCN-UHFFFAOYSA-N,N(CC1CCCC=C1)CC1CCC(CC1)CNCC1CCCC=C1.Cl.Cl,-6.745479711,7.0704,403.472
,C6445,FQPFAHBPWDRTLU-UHFFFAOYSA-N,OCC(COc1cc(C)cc(c1)C)(O)C,-2.449462888,1.4255,210.27
,C8938,FQRHOOHLUYHMGG-BTJKTKAUSA-N,Cn1c(=O)n(C)c2c(c1=O)[nH]cn2.Cn1c(=O)n(C)c2c(c1=O)[nH]cn2.NCCN,-0.322667824,-1.775,420.426
,C2755,FQSNPFDKCZQZQY-UHFFFAOYSA-N,OC(=O)/C=C\C(=O)O.CN(CCCN1c2ccccc2Sc2c1cc(cc2)C(=O)C)C,-5.436427703,4.2204,442.528
,C4429,FQSUTLQHSDLLAN-UHFFFAOYSA-N,CCCCOc1ccc(cc1Cl)CC(=O)N,-3.780159229,3.247,241.714
,C5787,FQTFHMSZCSUVEU-QRPNPIFTSA-N,[O-][N+](=O)c1cnc(s1)NC(=O)NCC,-2.857764565,2.1798,216.218
,C9740,FQTFHMSZCSUVEU-UHFFFAOYSA-N,NC[C@@H](c1ccc(c(c1)O)O)O.Cl,0.686896629,1.5922,205.639
,C9739,FQVHOULQCKDUCY-OGHXVOSASA-N,NCC(c1ccc(c(c1)O)O)O.Cl,0.686896629,1.5922,205.639
,C2069,FQXXSQDCDRQNQE-VMDGZTHMSA-N,O=CC[C@H]1C[C@@H](C)C(=O)/C=C/[C@@H]2O[C@H]2C[C@H](OC(=O)C[C@H]([C@@H]([C@H]1O[C@@H]1O[C@H](C)[C@H]([C@@H]([C@H]1O)N(C)C)O[C@@H]1O[C@@H](C)[C@@H]([C@](C1)(C)O)OC(=O)CC(C)C)OC)OC(=O)C)C,-6.921845891,2.4328,841.978
,C1668,FRASJONUBLZVQX-UHFFFAOYSA-N,CN1CCN(CC1)C1=Nc2cc(Cl)ccc2Nc2c1cccc2	,-3.24 ,3.1721,326.823
,C6549,FRCCEHPWNOQAEU-BRXBUPTESA-N,O=C1C=CC(=O)c2c1cccc2,-2.374439285,1.6218,158.153
,C118,FRDAATYAJDYRNW-UHFFFAOYSA-N,Cl[C@H]1C=C[C@H]2[C@@H]1[C@]1(Cl)C(=C([C@]2(C1(Cl)Cl)Cl)Cl)Cl,-6.3200002,5.2415,373.318
,C1515,FRDSROCWJPLYFM-UHFFFAOYSA-N,CCC(CC)(O)C,-0.38,1.5574,102.175
,C9642,FRFKVIFCSZBCCB-UHFFFAOYSA-N,O=c1cc(C)[nH]nc1N,0.610970987,0.2417,125.129
,C2713,FRHWGEORUKRDBY-UHFFFAOYSA-N,Cc1nc(nc(n1)N1CCCCC1)N1CCCCC1,-5.493498745,2.2906,261.366
,C4200,FRLHFSFDBMVIIR-UHFFFAOYSA-N,ClCCN(Cc1ccccc1)CCOc1ccccc1.Cl,-3.964561888,4.6084,326.261
,C4567,FRLNZMQBNCIHJM-UHFFFAOYSA-N,Cc1ccccc1OCCNc1ccccc1C(=O)N,-3.682779795,3.3581,270.326
,C5873,FROHJIAAKPDPPL-UHFFFAOYSA-L,CCc1csc(n1)[N-]S(=O)(=O)c1ccc(cc1)N.[Na+],-2.796372427,4.3438,305.352
,C9493,FRPZMMHWLSIFAZ-UHFFFAOYSA-N,CC[N+](CCOC(C[N+](CC)(C)C)C)(C)C.[Br-].[Br-],0.406470265,-4.4079,392.214
,C594,FRQSLQPWXFAJFO-UHFFFAOYSA-N,C=CCCCCCCCCC(=O)O,-3.4000001,3.3778,184.275
,C2145,FRTIVUOKBXDGPD-UHFFFAOYSA-M,CCOCOC(=O)c1ccccc1Nc1c(Cl)ccc(c1Cl)C,-6.665790559,5.2692,354.228
,C9806,FRTVWNBCUKELQF-UHFFFAOYSA-N,SCCCS(=O)(=O)[O-].[Na+],0.749102049,0.9323,178.206
,C2257,FRUIYGAEJNTDCA-UHFFFAOYSA-M,OC(=O)C(=O)O.CCC(=O)N(C(CN1CCC(CC1)c1ccccc1)C)Cc1ccccc1.CCC(=O)N(C(CN1CCC(CC1)c1ccccc1)C)Cc1ccccc1,-6.329005691,8.418,819.082
,C9069,FRXZIFVYTNMCHF-UHFFFAOYSA-N,O=C1C=C/C(=N/c2ccc(cc2)[O-])/C=C1.[Na+],-0.084696044,2.598,221.187
,C7579,FRYICJTUIXEEGK-NNWVIVGYSA-N,Oc1ccc(c(c1)C(=O)N)O,-1.682652987,0.897,153.135
,C5116,FRZDLTCXOSFHJC-UHFFFAOYSA-N,O[C@H]1CC[C@]2([C@](C1)(O)CC[C@@H]1[C@@H]2CC[C@]2([C@]31O[C@@H]3[C@@H]([C@@H]2c1ccc(=O)oc1)O)C)C,-3.301566279,2.344,416.507
,C7423,FSASIHFSFGAIJM-UHFFFAOYSA-N,S=c1ccc2c(o1)cccc2,-1.801826923,3.1623,162.208
,C8815,FSAWRQYDMHSDRN-UHFFFAOYSA-N,Nc1ncn(c2c1ncn2)C,-0.480972941,0.5267,149.153
,C247,FSBZQLGCTYKSMP-UHFFFAOYSA-N,Cc1ccc(c2c1cccc2C)C,-4.9200001,3.765,170.25
,C8508,FSCPTWHCVYVMGT-UHFFFAOYSA-N,CCc1ccc(c(c1)CN(C)C)O,-0.88987868,2.0162,179.259
,C7962,FSCWZHGZWWDELK-LBPRGKRZSA-N,OCn1c2cc(Cl)ccc2oc1=O,-1.400865591,1.1977,199.591
,C246,FSEUPUDHEBLWJY-HWKANZROSA-N,C=C[C@]1(C)OC(=O)N(C1=O)c1cc(Cl)cc(c1)Cl,-4.9299998,3.4863,286.111
,C7450,FSFWMJBQLWFXSM-UHFFFAOYSA-N,C/C(=N\O)/C(=O)C,-1.774834948,0.4255,101.104
,C7520,FSGOAEWOBMTEJB-UHFFFAOYSA-N,ClCCn1c(C)ncc1[N+](=O)[O-],-1.725167826,1.8617,189.6
,C9142,FSGWUPVGLATWMM-UHFFFAOYSA-N,OCC(COc1ccccc1C(=O)N)O,0.053669031,0.2178,211.215
,C8875,FSIFRTHCIGOKNH-GDNBJRDFSA-N,OC(CN1CCN(CC1)C)COc1cccc(c1)C(=O)C.Cl.Cl,-0.413424627,2.3561,365.295
,C3637,FSKSLWXDUJVTHE-WEVVVXLNSA-N,CCOC(=O)/C(=N\Nc1cccc(c1)Cl)/C#N,-4.400918317,2.26758,251.669
,C7215,FSMDSXIVAIALBA-UHFFFAOYSA-L,O/N=C/c1ccc(cc1)F,-1.950571548,1.6338,139.127
,C9297,FSNFYCPCXFQJSI-AREMUKBSSA-N,C[N+](CCOc1ccc(cc1)OCC[N+](C)(C)C)(C)C.[I-].[I-],0.270643223,-4.1354,536.231
,C144,FSNGFFWICFYWQC-UHFFFAOYSA-N,Cc1ccc(cc1)O[P@@](=O)(Oc1ccccc1C)Oc1cccc(c1)C,-6.0100002,6.2567,368.363
,C8692,FSODIQQHMZLLSA-UHFFFAOYSA-N,ClCCN1CCCC1.Cl,-0.68533847,2.0609,170.08
,C8359,FSOSKSIAEUKJIK-UHFFFAOYSA-M,Nc1ccc(cc1)C(=O)Nc1ncc[nH]1,-1.024784296,1.8984,202.213
,C7813,FSPAEMUWKSBARM-UHFFFAOYSA-L,CCC1(C(C)C)C(=O)[N-]C(=O)NC1=O.[Na+],-1.521311656,0.8482,220.201
,C9397,FSQCJCGRJQUHCA-UHFFFAOYSA-N,C[N+](CCSCC[N+](C)(C)C)(C)C.[I-].[I-],0.337052451,-4.86,460.201
,C6323,FSQKKOOTNAMONP-UHFFFAOYSA-N,O=C(Nc1ccc(cc1C)C)NC=CP(=O)(N1CC1)N1CC1,-2.521524661,3.0601,320.327
,C3015,FSRLGULMGJGKGI-BTJKTKAUSA-N,COc1ccc2c(c1)c(CC(=O)OCC(=O)O)c(n2C(=O)c1ccc(cc1)Cl)C,-5.094905185,3.4705,415.824
,C3840,FSSICIQKZGUEAE-UHFFFAOYSA-N,OC(=O)/C=C\C(=O)O.CCC(c1ccccc1)(N(C)C)COC(=O)c1cc(OC)c(c(c1)OC)OC,-4.217741036,3.4481,503.542
,C6571,FSTBFUURVQFNFN-UHFFFAOYSA-N,CN(CCN(c1ccccn1)Cc1ccccc1)C.Cl,-2.361315797,3.4518,291.819
,C6261,FSVJFNAIGNNGKK-UHFFFAOYSA-N,CCCSCCCCCN1CCSC1.Cl,-2.559613874,4.0461,269.898
,C5735,FSWSKIYYIMFQIT-UHFFFAOYSA-N,O=C(N1CC(=O)N2C(C1)c1ccccc1CC2)C1CCCCC1,-2.892669092,2.4107,312.406
,C3379,FSWXOANXOQPCFF-UHFFFAOYSA-N,CN(CCCC1(OC(c2c1cccc2)(C)C)c1ccccc1)C.Cl,-4.65247366,5.3393,345.906
,C839,FTBPJDDHEJKEEF-UHFFFAOYSA-L,CCC(=O)c1ccc(cc1)N,-2.6300001,2.4427,149.19
,C8878,FTBWWORDOHNJDB-UHFFFAOYSA-N,CCCCCC[N+](CCOCC[N+](CCCCCC)(CC)CC)(C)C.[Br-].[Br-],-0.407221739,-0.8954,518.453
,C7446,FTCYKZUJBNQKIH-UHFFFAOYSA-N,O=C1CCS(=O)(=O)C(N1C)c1ccc(c(c1)Cl)Cl,-1.778677221,3.2876,308.181
,C6677,FTGPOQQGJVJDCT-UHFFFAOYSA-N,ClCC[NH+](CC(=C)Cl)CCCl.[Cl-],-2.289156587,-1.8946,252.997
,C8500,FTJDCBUTDLGPDM-UHFFFAOYSA-N,Nc1c2ccccc2nc2c1cccc2.Cl,-0.899145212,4.3534,230.693
,C5148,FTKASJMIPSSXBP-UHFFFAOYSA-N,c1ccc(cc1)N1CCN(CC1)Cc1ccc2c(n1)cccc2.Cl.Cl,-3.278897892,5.1639,376.323
,C7955,FTLDJPRFCGDUFH-UHFFFAOYSA-N,[O-][N+](=O)CC(=O)OCC,-1.412380615,0.3494,133.103
,C3305,FTLSQEOSDKCVOB-UHFFFAOYSA-N,OCCN(CC(=O)N(C(Cc1ccccc1)(C)C)C)CC(=O)N(C(Cc1ccccc1)(C)C)C,-4.737349421,3.2401,467.643
,C5868,FTNWXGFYRHWUKG-UHFFFAOYSA-N,CN1CCN(CC1)CC(=O)N1C(C)(C)CCCC1(C)C,-2.798113981,1.6172,281.437
,C2168,FTOAOBMCPZCFFF-UHFFFAOYSA-N,CN(CCCN1c2ccccc2Sc2c1cc(cc2)C(F)(F)F)C.Cl,-6.564506404,6.1268,388.878
,C1274,FTOVXSOBNPWTSH-UHFFFAOYSA-N,CCC1(CC)C(=O)NC(=O)NC1=O,-1.39,0.8164,184.192
,C29,FTQDJVZNPJRVPG-XWEVEMRCSA-N,c1ccc2c(c1)c1cc3ccccc3c3c1c2ccc3,-8.2299995,5.6404,252.309
,C1753,FTQWRYSLUYAIRQ-UHFFFAOYSA-N,CC(=O)O[C@H]1CC[C@]2([C@H](C1(C)C)CC[C@@]1([C@@H]2C(=O)C=C2[C@@]1(C)CC[C@@]1([C@H]2C[C@](C)(CC1)C(=O)O)C)C)C,-10.59594624,6.9834,512.721
,C1716,FTRNOUCMCKWOKR-UHFFFAOYSA-N,CCCCCCCCCCCCCCCCCC(=O)NCNC(=O)CCCCCCCCCCCCCCCCC,-14.93986516,12.4811,578.996
,C3182,FTTMRGDSJHOGEJ-MELYUZJYSA-N,Clc1cnc(c(c1)Cl)SCCCCCCN1CSCC1.Cl,-4.882750812,5.7871,387.819
,C5717,FTTMRGDSJHOGEJ-OALZAMAHSA-N,N[C@@H]1CC[C@H](c2c1cccc2)c1ccccc1.Cl,-2.902717353,5.1144,259.774
,C5718,FTZBYXCNXOPJEL-UHFFFAOYSA-N,N[C@@H]1CC[C@@H](c2c1cccc2)c1ccccc1.Cl,-2.902717353,5.1144,259.774
,C6530,FUBVWMNBEHXPSU-UHFFFAOYSA-N,CCC(Cc1ccccc1)(O)C,-2.390723628,2.3901,164.244
,C2425,FUFVKLQESJNNAN-ZZJGABIISA-M,CCOC(=O)Nc1ccc2c(c1)N(C(=O)CCN1CCOCC1)c1c(S2)cccc1,-5.971229336,4.1825,427.517
,C9059,FUKGUAVFRQEKLQ-UHFFFAOYSA-N,OC(c1ccccc1)C(=O)OC1C[C@@H]2CC[C@H](C1)[N+]2(C)C.[Br-],-0.103155602,-1.0042,370.281
,C3854,FULZLIGZKMKICU-UHFFFAOYSA-N,CCCOc1c(ccc(c1C(=O)O)C)C(C)C,-4.203222223,3.6054,236.307
,C1150,FUQOTYRCMBZFOL-UHFFFAOYSA-N,NC(=S)Nc1ccccc1,-1.77,2.1154,152.217
,C5828,FURHNUQBNCRKHI-UHFFFAOYSA-N,Clc1ccc2c(c1)cc([nH]2)C(=O)O,-2.831980826,2.5195,195.602
,C7208,FUSGACRLAFQQRL-UHFFFAOYSA-N,ClCC[NH+](CC[NH+](CCCl)CC)CC.[Cl-].[Cl-],-1.953022014,-6.7184,314.123
,C1382,FUSNMLFNXJSCDI-UHFFFAOYSA-N,CCN(C(=O)N)N=O,-0.95999998,0.7687,117.107
,C2152,FUWUEFKEXZQKKA-UHFFFAOYSA-N,Cc1cccc(c1)N(C(=S)Oc1ccc2c(c1)cccc2)C,-6.641629837,4.9483,307.409
,C6927,FUXMIXDZSFCFJD-UHFFFAOYSA-N,CC(c1cccc(c(=O)c1)O)C,-2.13620246,1.8758,164.201
,C8560,FUXMTEKFGUWSNC-UHFFFAOYSA-N,CC(COc1ccc(cc1)[As](=O)(O)O)O,-0.835792819,-0.9928,276.118
,C3425,FUZUXFGUZUHTCB-UHFFFAOYSA-N,OC(=O)c1cc(Cl)c(c(c1Cl)Cl)Cl,-4.605905356,3.9984,259.902
,C4611,FUZZWVXGSFPDMH-UHFFFAOYSA-N,C=NN1C(C)(C)CCCC1(C)C,-3.661376762,2.583,168.279
,C1364,FVDITDRRUMYAHJ-QVLKBJGCSA-N,CCCCCC(=O)O,-1.0599999,1.6513,116.158
,C4314,FVGJURXBWORGKL-JEDNCBNOSA-N,O=C(/C=C/c1ccccc1)CCN1CCN(CC1)c1ccc(cc1)F.Cl.Cl,-3.862923962,5.2272,411.34
,C9089,FVJTYCJHQHSYGS-UHFFFAOYSA-N,O=c1[nH]c(=O)[nH]c(c1)C(=O)O.NCCCC[C@@H](C(=O)O)N,-0.049055692,-0.3107,302.284
,C9683,FVJXQULTXSAVRF-UHFFFAOYSA-N,NCCCNCCCSP(=O)(O)O,0.639854279,1.232,228.25
,C2307,FVLVBPDQNARYJU-UHFFFAOYSA-N,Clc1cnc2c(c1)N(C(=O)SCCN(C(C)C)C(C)C)c1c(S2)cccc1.Cl,-6.19443382,7.1767,458.468
,C4374,FVMSYKRGNMQTLX-UHFFFAOYSA-M,ClCCN(C(=O)NC1CCC(CC1)C)N=O,-3.825647263,2.8878,247.722
,C3298,FVNFBBAOMBJTST-UHFFFAOYSA-N,Clc1ccccc1CNCC1CCC(CC1)C[N+](Cc1ccccc1Cl)(C)C.[I-],-4.741312708,3.5609,547.343
,C7103,FVQFIRWEWAQNBZ-UHFFFAOYSA-N,O=C1NCC2(O1)CCN(CC2)CCc1ccccc1,-2.034601449,2.0702,260.332
,C4205,FVRDYQYEVDDKCR-DBRKOABJSA-N,CNC(CCC12CC3CC(C2)CC(C1)C3)C.Cl,-3.961111307,4.7838,257.843
,C8464,FVSKHRXBFJPNKK-UHFFFAOYSA-N,OC[C@H]1O[C@H]([C@@H]([C@@H]1O)O)c1scc(n1)C(=O)N,-0.931256692,-0.9037,260.267
,C1582,FVTVMQPGKVHSEY-UHFFFAOYSA-N,CCC#N,0.28,0.91998,55.0785
,C8962,FVYNXBCYHZXKIV-UHFFFAOYSA-N,OC(=O)C1(N)CCC1,-0.26880436,0.6527,115.13
,C5349,FVYRUSCZCWSFLT-UHFFFAOYSA-N,CCC(c1ccccc1)(COC(=O)N(C)C)CO,-3.135419596,2.0249,251.321
,C4152,FVZVSNDNKMOYKF-UHFFFAOYSA-N,CCOP(=O)(Cc1ccc(cc1)c1nc2c(s1)cccc2)OCC,-4.001680841,5.7294,361.395
,C8826,FWAJPSIPOULHHH-UHFFFAOYSA-N,NCCc1cc(OC)c(c(c1)OC)OC.Cl,-0.469163305,2.7159,247.719
,C334,FWAWELGQRMERND-UHFFFAOYSA-N,Brc1ccc(c(c1)Br)Br,-4.5,3.9741,314.8
,C7680,FWJKNZONDWOGMI-UHFFFAOYSA-N,CCN(c1ccccc1)CCN(C)C,-1.610050836,2.0745,192.301
,C993,FWKBQAVMKVZEOT-STCFVSJZSA-N,CCC1(CC)C(=O)NC(=O)N(C1=O)C,-2.23,0.7677,198.219
,C3326,FWLNZTGNVCRKCU-UHFFFAOYSA-N,CC(CC(=O)O[C@@H]1OC=C(C2=C[C@@H]([C@@]3([C@@H]12)CO3)OC(=O)CC(OC(=O)C)(C)C)COC(=O)C)C,-4.696275965,2.3478,480.505
,C6423,FWMLYVACGDQRFU-UHFFFAOYSA-N,Clc1ccc(cc1)Cn1cc(F)c(=O)[nH]c1=O,-2.458403407,1.3774,254.645
,C5821,FWMLYVACGDQRFU-ZTMWJVNESA-N,OC(C(C(=O)O)O)C(=O)O.C=CCN1CCC23C(C1Cc1c3cc(cc1)O)CCCC2,-2.835586404,1.4519,433.495