Name,Compound ID,InChIKey,SMILES,logS,logP,MW
,C1670,VKMGSWIFEHZQRS-UHFFFAOYSA-N,CC#C[C@]1(O)CC[C@@H]2[C@]1(C)C[C@H](c1ccc(cc1)N(C)C)C1=C3CCC(=O)C=C3CC[C@@H]21	,-5.90 ,5.4065,429.594
,C5248,VKPLPDIMEREJJF-UHFFFAOYSA-N,C[NH+]([C@@H](c1ccccc1)Cc1ccccc1)C.[Cl-],-3.208443015,-0.8811,261.79
,C5817,VKQFCGNPDRICFG-UHFFFAOYSA-N,CC(NCC(c1ccc(c(c1)Cl)Cl)O)C,-2.83780376,3.4157,248.149
,C8351,VKRAXSZEDRWLAG-SJKOYZFVSA-N,COc1cccc(c1)C(=O)N,-1.030540227,1.4944,151.163
,C3858,VKRAZLAKVAQZGN-UHFFFAOYSA-N,COC(=O)C1=C(C)NC(=C(C1c1ccccc1[N+](=O)[O-])C(=O)OCC(C)C)C,-4.197837183,4.0538,388.414
,C3529,VKVXZTDIZODPAP-UHFFFAOYSA-N,CCN(C(=O)[C@H]1CN(C)[C@H]2C(=C1)c1cccc3c1c(C2)c([nH]3)Br)CC,-4.504908253,3.6064,402.328
,C4124,VKXGYKMQYZFKAP-UHFFFAOYSA-N,CNCCCCC12CC3CC(C2)CC(C1)C3.Cl,-4.023970589,4.7854,257.843
,C4579,VKXJWYMAAPLXAS-UHFFFAOYSA-N,CCN(C(=O)N1CCN(CC1)CC(=O)NN=Cc1ccc(o1)[N+](=O)[O-])CC,-3.674990168,1.5072,380.399
,C6308,VKYWCHMXHQTCJQ-UHFFFAOYSA-N,OCC(COc1ccc2c(c1)cccc2)O,-2.531423204,1.5718,218.248
,C3571,VLAPOICCOPIXJJ-UHFFFAOYSA-N,OCCNC(=O)c1c(I)c(N(C(=O)C)CC(CO)O)c(c(c1I)C(=O)NCCO)I,-4.466295681,0.4325,761.086
,C643,VLARUOGDXDTHEH-UHFFFAOYSA-L,CCCCCOC(=O)c1ccc(cc1)N,-3.26,3.197,207.269
,C5460,VLAXZGHHBIJLAD-UHFFFAOYSA-N,CC(NC(Cc1cc(OC(=O)C)cc(c1)OC(=O)C)OC(=O)C)C,-3.06421606,2.3578,337.368
,C9325,VLAZWTFELFNZTO-UHFFFAOYSA-N,OC(COc1cccc2c1c(=O)cc(o2)C(=O)[O-])COc1cccc2c1c(=O)cc(o2)C(=O)[O-].[Na+].[Na+],0.290446839,-0.5549,512.33
,C4354,VLFMJVSCBCADEJ-UHFFFAOYSA-N,Oc1ccc(cc1N)/[As]=[As]/c1ccc(c(c1)N)O.Cl.Cl,-3.84147166,2.3028,439.001
,C8945,VLHUSFYMPUDOEL-WZTVWXICSA-N,CCN1CCN(C1=S)CC,-0.31317077,0.8045,158.264
,C2351,VLILKLKOJKTCAA-UHFFFAOYSA-N,N(CC1CCCC1)CC1CCC(CC1)CNCC1CCCC1.Cl.Cl,-6.104942883,6.7382,379.451
,C3048,VLIZSQKTSLFMRP-GQCTYLIASA-N,CNC(=O)c1c(I)c(NC(=O)C)c(c(c1I)C(=O)O)I.CNC[C@@H]([C@H]([C@@H]([C@@H](CO)O)O)O)O,-5.048280264,0.0131,809.127
,C7853,VLJKEQVJDMCCRE-UHFFFAOYSA-N,CCC(c1ccccc1)CNCCSS(=O)(=O)O,-1.489307679,3.7775,289.414
,C5297,VLJRCRMLQIRLLA-UHFFFAOYSA-N,CN1C2CCC1CN(C2)C/C=C/c1ccccc1Cl,-3.170337047,3.0074,276.804
,C5909,VLKWQQFBFMQSNA-UHFFFAOYSA-N,CC(CCn1c(=O)c2n(C)cnc2n(c1=O)C)C,-2.774182224,0.4798,250.297
,C7969,VLKZOEOYAKHREP-UHFFFAOYSA-N,Clc1cccc(c1)C1NCCS1,-1.391991593,3.0038,199.7
,C5202,VLLNJDMHDJRNFK-UHFFFAOYSA-N,CCNc1nc(NCC)nc(n1)C(F)(F)F,-3.237924259,1.9,235.21
,C482,VLNWDJONOVINKT-UHFFFAOYSA-N,CCCCCC,-3.8399999,2.5866,86.1754
,C6628,VLNZLRGVZZUCPQ-UHFFFAOYSA-N,OC12CC3CC(C2)CC(C1)C3,-1.629852001,1.9475,152.233
,C4778,VLPADTBFADIFKG-UHFFFAOYSA-N,C[NH2+]CCc1csc2c1cc(Br)cc2.[Cl-],-3.559266941,-0.5965,306.65
,C3736,VLPIATFUUWWMKC-UHFFFAOYSA-N,CCCCN(CCOCCCOC(=O)c1ccc(cc1)N)CCCC,-4.306645624,4.3157,350.496
,C4735,VLQBSKLZRSUMTJ-UHFFFAOYSA-N,O=C1c2ncccc2c2c(C1=O)nccc2,-3.583835624,1.5226,210.188
,C8018,VLQLJPWPRYUYMK-UHFFFAOYSA-N,CC(COc1c(C)cccc1C)N,-1.337142008,2.7297,179.259
,C7732,VLQYRAJKFGZRNV-UHFFFAOYSA-N,CSc1ccccn1,-1.575774521,1.8035,125.191
,C5428,VLRAHRUEAVCNNS-UHFFFAOYSA-N,OC(=O)Cc1cccc(c1)c1ccccc1,-3.081330939,2.9807,212.244
,C5109,VLSVEVCSHFHKEM-UHFFFAOYSA-N,Ic1ccc2c(c1)nc(o2)N,-3.304440426,2.5958,260.032
,C5214,VLTOCQFUFACJGC-UHFFFAOYSA-N,O1CCN(CC1)CCC12CC3CC(C2)CC(C1)C3.Cl,-3.230838015,3.665,285.853
,C8600,VLWJKVNMRMHPCC-UHFFFAOYSA-N,COc1ccc(c(c1)C(=O)N)O,-0.793390475,1.2,167.162
,C2613,VLYWMPOKSSWJAL-UHFFFAOYSA-N,CNCCC=C1c2ccccc2C(c2c1cccc2)(C)C.Cl,-5.638211212,5.56,313.864
,C6122,VLZLEPNAKIFDQJ-UHFFFAOYSA-N,ClCCN(Cc1ccccc1)CCCl,-2.649761584,2.9662,232.15
,C633,VMAUDRNSDVRVPM-UHFFFAOYSA-N,COc1ccc(nn1)NS(=O)(=O)c1ccc(cc1)N,-3.28,2.6032,280.303
,C8704,VMFVHQCMVQSENS-UHFFFAOYSA-N,[O-][N+](=O)Nc1ccccn1,-0.660497255,1.2814,139.112
,C4215,VMGTVVBGSTUZRH-UNGNXWFZSA-N,CC(COc1ccc(cc1)C(=O)CCN1CCCCC1)C.Cl,-3.951952339,4.52,325.873
,C3959,VMIYHDSEFNYJSL-UHFFFAOYSA-N,CC(=O)c1ccc2c(c1)nc(s2)c1ccccc1,-4.134154821,4.1659,253.319
,C6865,VMKCJDKUSMBRND-UHFFFAOYSA-K,CCCCCCCCOCn1ccn(/c/1=C\[NH+]=O)C.[Cl-],-2.167501752,-1.9687,303.828
,C5188,VMKOFRJSULQZRM-UHFFFAOYSA-N,O=C1CN=C(c2c(N1)ccc(c2)Br)c1ccccn1,-3.25637006,2.2072,316.153
,C9154,VMKPDXOZTSISIW-UHFFFAOYSA-N,CC[N+](CCNc1nc(NCC[N+](CC)(CC)C)nc(n1)NCC[N+](CC)(CC)C)(CC)C.[I-].[I-].[I-],0.070850942,-6.2025,849.459
,C231,VMKWQRRZHFSZPG-UHFFFAOYSA-N,CCCCCCCCBr,-5.0599999,3.7418,193.125
,C8641,VMPAHPDCSQOZIS-UHFFFAOYSA-N,ONC(=O)c1ccccc1N,-0.747711616,1.3599,152.151
,C7942,VMPGAQLGAMYZMS-UHFFFAOYSA-N,CNC(C(C)(C)C)(C)C.Cl,-1.424151023,3.2234,165.704
,C1960,VMQHGBUSMBFWHN-UHFFFAOYSA-N,CCCC(c1nc2c(s1)nc(s2)C(CCC)(C)C)(C)C,-7.402181683,5.9082,310.521
,C2834,VMSQKUCYEMOKMM-UHFFFAOYSA-N,Brc1ccc(nc1)OCCCCCCCCCCNCCSS(=O)(=O)O,-5.304236198,5.941,469.457
,C8296,VMSRVIHUFHQIAL-UHFFFAOYSA-M,NCCCCNC(=O)c1ccccc1,-1.098918242,2.2465,192.258
,C3471,VMTAWEDBJXZUHA-SYRJXDITSA-N,COC(C(C1OC(SCCOC(=O)c2ccccc2O)C(C(C1O)O)O)NC(=O)C1CCCN1C)C,-4.564778634,0.0325,528.616
,C9872,VMXUWOKSQNHOCA-UKTHLTGXSA-N,CN(C(=S)[S-])C.[Na+],0.844063048,0.3798,143.206
,C3034,VNDAPXAHSWGLCJ-SOFGYWHQSA-N,C/C=C/C(c1ccccc1)(c1ccccc1)CC([NH+](C)C)C.[Cl-],-5.068148991,0.4759,329.907
,C8283,VNDHYTGVCGVETQ-UHFFFAOYSA-N,CN/C(=C\[N+](=O)[O-])/NCCSCc1ccc(o1)CN(C)C,-1.105494977,2.764,314.404
,C4863,VNFPBHJOKIVQEB-UHFFFAOYSA-N,[O-][N+](=O)/C(=C/c1cnc(n1C)[N+](=O)[O-])/CCCC,-3.493032072,3.1825,254.243
,C8380,VNGUYOQHHPRKLZ-UHFFFAOYSA-N,NC(=O)c1ccc(cc1)F,-0.99389065,1.6249,139.127
,C1944,VNKYTQGIUYNRMY-UHFFFAOYSA-N,Clc1ccccc1C(n1cncc1)(c1ccccc1)c1ccccc1,-7.533729002,5.3767,344.837
,C8418,VNLMRPAWAMPLNZ-UHFFFAOYSA-N,COc1c(cccc1OC)CC(N)C.Cl,-0.963562979,3.0958,231.719
,C1512,VNMBHLAZEFBPDZ-UHFFFAOYSA-M,CCCOC,-0.38999999,1.0428,74.1216
,C8589,VNONOKVNCRGYBP-UHFFFAOYSA-N,C=CCC1(CC(O)C)C(=O)NC(=O)NC1=O,-0.808258181,0.3434,226.229
,C5851,VNPCIBFTAYHHLJ-UHFFFAOYSA-N,C=CCC1(C(C)C)C(=O)NC(=NC1=O)[S-].[Na+],-2.810603515,0.5286,248.277
,C2956,VNPLYCKZIUTKJM-UHFFFAOYSA-N,CCCCCCCCSCCCCCN1CSCC1.Cl,-5.153112936,5.9966,340.031
,C1223,VNTDJZPKDTVRQN-UHFFFAOYSA-N,CSc1cnc2c(n1)ncnc2,-1.55,1.1417,178.214
,C3786,VNTUXFDKBZQALW-UHFFFAOYSA-N,COc1ccc2c(c1)[nH]c1c2ccnc1C.Cl,-4.258972698,3.8351,248.708
,C2560,VNWKTOKETHGBQD-UHFFFAOYSA-N,COC1(CCC(CC1)NCCCC(=O)c1ccc(cc1)F)c1cccc(c1)C.Cl,-5.72393991,6.364,419.96
,C7196,VNYBTNPBYXSMOO-UHFFFAOYSA-M,COC(c1cnc(n1C)[N+](=O)[O-])(C)C,-1.962851423,1.733,199.207
,C1394,VNYXTZQJJLBMQI-UHFFFAOYSA-N,C,-0.89999998,0.6361,16.0425
,C9605,VOBHRQFELWTZFS-AWLRYRRCSA-K,C[n+]1cccc(c1)OC(=O)N(C)C.[Br-],0.583161543,-2.4245,261.116
,C5122,VOCBWIIFXDYGNZ-IXKNJLPQSA-N,CCN1CCN=C1Nc1ncc(s1)[N+](=O)[O-],-3.297567949,1.1244,241.27
,C8374,VOEYXMAFNDNNED-UHFFFAOYSA-N,O=C1/C(=N\Nc2ccc(c3c2cccc3)S(=O)(=O)[O-])/c2ccc(cc2C=C1S(=O)(=O)[O-])S(=O)(=O)[O-].[Na+].[Na+].[Na+],-1.003217035,4.2484,604.473
,C1903,VOFCLKYNOMPMHJ-UHFFFAOYSA-N,CCCCCCC(=O)O[C@H]1CC[C@@H]2[C@]1(C)CC[C@H]1[C@H]2CCC2=CC(=O)CC[C@]12C,-7.867914368,6.4005,400.594
,C1141,VOGJJBHRUDVEFM-UHFFFAOYSA-N,CNC(=O)Oc1cccc(c1)C,-1.8,2.1041,165.189
,C4508,VOKSWYLNZZRQPF-GDIGMMSISA-N,CC(N(C)C)CC12CC3CC(C2)CC(C1)C3.Cl,-3.721164335,4.345,257.843
,C3176,VOLFUPQSGZPFLV-UHFFFAOYSA-N,CCCCC(C1NC(=O)N(C1=O)SC(Cl)(Cl)Cl)CC,-4.890191353,4.3658,347.689
,C4190,VOOFFTMORIBISQ-UMRVURNHSA-N,CC(=CCN1CC[C@@]2([C@H]([C@H]1Cc1c2cc(cc1)O)C)C)C,-3.974632215,3.8205,285.424
,C6259,VOQLXJOTGDNQST-UHFFFAOYSA-N,N/C(=N\CCSc1ccccc1)/CSS(=O)(=O)O,-2.560479598,3.453,306.425
,C6757,VORWOQGVKPXSCM-UHFFFAOYSA-N,OC/C/1=C\[C@H]2OC(=O)C(=C)[C@@H]2[C@H](C/C(=C/CC1)/C)OC(=O)C(CO)C,-2.243547748,1.6733,350.406
,C9601,VOUGEZYPVGAPBB-XQRVVYSFSA-N,NCCCNCCCSP(=O)(O)O.O.O,0.576199954,1.1034,264.28
,C6300,VOVIALXJUBGFJZ-KWVAZRHASA-N,Clc1ccc2c(c1)n(C)c(=O)o2,-2.535497605,1.7849,183.592
,C8466,VOWFSTQCEXIMLP-UHFFFAOYSA-N,CO/C(=C\C(=O)O)/C(=O)C(=C)C,-0.92983769,0.7465,170.163
,C3427,VOXZDWNPVJITMN-OAGCAAQDSA-N,CCCC1O[C@H]2[C@](O1)(C(=O)CO)[C@@]1([C@@H](C2)[C@@H]2CCC3=CC(=O)C=C[C@@]3([C@H]2[C@H](C1)O)C)C,-4.603010224,2.7168,430.534
,C9385,VOZHMAYHYHEWBW-NVOOAVKYSA-N,COc1ccc(c(c1)C(CN)O)OC.Cl,0.327712543,2.1982,233.692
,C264,VOZRXNHHFUQHIL-UHFFFAOYSA-N,Oc1ccc2c(c1)CC[C@@H]1[C@@H]2CC[C@]2([C@H]1CC[C@@H]2O)C,-4.8400002,3.6092,272.382
,C2844,VPAKVXXHZNTCFE-UHFFFAOYSA-M,O[C@H]1CC[C@]2([C@@H](C1)CC[C@@H]1[C@@H]2CC[C@]2([C@]1(O)C[C@@H]([C@@H]2c1ccc(=O)oc1)OC(=O)C)C)C,-5.292486669,3.7835,444.56
,C8458,VPGRYOFKCNULNK-ACXQXYJUSA-N,CC(=C)C(=O)OCC1CO1,-0.935275171,0.5045,142.152
,C7780,VPIRVRHBFOMBQB-UHFFFAOYSA-N,CC1CCCN(C1)C=CC=C(/C=[N+]/1\CCCC(C1)C)C.[Cl-],-1.542269836,0.5922,310.905
,C300,VPISOLDSBFMXDM-UHFFFAOYSA-N,CC(=O)OCC(=O)[C@H]1CC[C@@H]2[C@]1(C)CC[C@H]1[C@H]2CCC2=CC(=O)CC[C@]12C,-4.6300001,4.2667,372.498
,C4880,VPMWDFRZSIMDKW-UHFFFAOYSA-N,CN1C2CCC1CN(C2)C(c1ccccc1)c1ccccc1,-3.474789893,3.4302,292.418
,C6645,VPMWFZKOWULPGT-UHFFFAOYSA-N,CCCCc1[nH]c2c(n1)n(C)c(=O)n(c2=O)C,-2.316512902,0.3029,236.27
,C7808,VPNYRYCIDCJBOM-UHFFFAOYSA-M,COc1ccc(cc1)CC(NCC(c1ccc(c(c1)CO)O)O)C,-1.522108878,2.5382,331.406
,C3732,VPOMSPZBQMDLTM-UHFFFAOYSA-N,O=C1N(Cc2c1cc(c(c2)Cl)S(=O)(=O)N)C1CCCCC1,-4.312826355,3.9949,328.814
,C8231,VPOOPIJRSJBRBE-UHFFFAOYSA-N,O=C(C(c1ccccc1)(C1CCCC1)O)OC1CC[N+](C1)(C)C.[Br-],-1.145257792,-0.5809,398.335
,C1289,VPSBSHPMUADTAT-UHFFFAOYSA-L,Oc1cc(Cl)cc(c1)Cl,-1.34,2.699,163.001
,C4888,VPTIXDOSBAIVCW-UHFFFAOYSA-N,CNCC=C(c1ccccc1)c1ccc(cc1)Cl.Cl,-3.4686707,5.184,294.219
,C9333,VPUGDVKSAQVFFS-UHFFFAOYSA-N,C[N+](CCCC[N+]1(C)CC2CCCC(C1)C2)(C)C.[I-].[I-],0.293904669,-3.2938,508.264
,C6238,VPVJXWSPNRIXTI-UHFFFAOYSA-N,COc1ccc(cc1)CC/N=C(/CSS(=O)(=O)O)\N,-2.569071529,2.912,304.386
,C4,VQASKUSHBVDKGU-UHFFFAOYSA-N,c1cc2ccc3c4c2c2c1ccc1c2c2c4c(cc3)ccc2cc1,-9.3299999,6.9192,300.352
,C2714,VQDXQNNYGSEHPU-UHFFFAOYSA-N,Brc1ccc2c(c1)c(=O)n(c(n2)C)c1ccccc1,-5.489944714,3.4566,315.165
,C8099,VQFGDOHENLRPFB-UHFFFAOYSA-N,CCC1(C)OC(=O)N(C1=O)C,-1.271880874,0.7016,157.167
,C1180,VQKLRVZQQYVIJW-UHFFFAOYSA-N,O=C1NC(=O)NC(=O)C21CCC2,-1.65,0.1803,168.15
,C8812,VQNAFOJXHZEXDE-UHFFFAOYSA-N,SCc1cnccn1,-0.490320034,0.9064,126.18
,C9144,VQQGMYWNLQESNT-VNMUXGFYSA-N,NNc1nnc(c2c1cccc2)NN,0.054616777,1.7476,190.205
,C2608,VQQKIXKPMJTUMP-UHFFFAOYSA-N,CCCC[NH+]1CCC(CC1)OC(=O)C(c1ccccc1)c1ccccc1.[Cl-],-5.650253792,1.7823,387.943
,C4950,VQTUBCCKSQIDNK-UHFFFAOYSA-N,OP(=O)(O)O.CN1CC[C@@]23[C@H]([C@H]1Cc1c3cccc1)CCCC2,-3.42008631,2.3841,339.366
,C21,VQWCWQHJLVFEAI-QYVXJREKSA-N,Clc1cccc(c1Cl)c1cc(Cl)c(c(c1Cl)Cl)Cl,-8.4200001,7.274,360.878
,C961,VRAHPESAMYMDQI-UHFFFAOYSA-N,CC(=C)C,-2.3299999,1.5824,56.1063
,C2089,VRAXKPZRHYDZFB-UHFFFAOYSA-N,Oc1ccc2c(c1)[C@]13CCCC[C@H]3[C@@H](C2)N(CC1)CCc1ccc(cc1)c1ccccc1.Cl,-6.839338367,7.1002,460.05
,C3248,VRBJICNRMCPYFG-UHFFFAOYSA-N,OC1C(CCCC1(COC(=O)c1cccnc1)COC(=O)c1cccnc1)(COC(=O)c1cccnc1)COC(=O)c1cccnc1,-4.810809514,3.512,640.639
,C5963,VRBKIVRKKCLPHA-UHFFFAOYSA-N,NC1=Nc2ccc(cc2N(C(=O)C1)c1ccccc1)C(F)(F)F,-2.742253384,3.9634,319.281
,C2192,VRCHGIBAGWCXID-UHFFFAOYSA-N,COc1cc2CC[NH+](C(c2cc1OC)CCc1cc(Cl)c(c(c1)Cl)Cl)C.[Cl-],-6.508249728,2.9819,451.214
,C2344,VRDIULHPQTYCLN-UHFFFAOYSA-N,CCc1nn(c(=O)n1CCOc1ccccc1)CCCN1CCN(CC1)c1cccc(c1)Cl,-6.117258369,3.5548,470.007
,C2559,VREDNSVJXRJXRI-UHFFFAOYSA-N,COC1(CCC(CC1)NCCCC(=O)c1ccc(cc1)F)c1ccc(cc1)C.Cl,-5.72393991,6.364,419.96
,C7152,VREFGVBLTWBCJP-UHFFFAOYSA-N,CCCc1cc(ccn1)C(=S)N,-1.997283767,2.3686,180.27
,C5586,VRGKDCRTYBCJTA-AATRIKPKSA-N,CCCCCCCC(O)(C)C,-2.984595913,3.1178,158.281
,C3668,VRHAQNTWKSVEEC-UHFFFAOYSA-N,Clc1ccc2c(c1)C(=NCc1n2c(C)nn1)c1ccccc1,-4.37236241,3.0157,308.765
,C9664,VRHXTJPSLYPTOW-YAKHFBBESA-N,O=N/C=c/1\cccc[nH]1,0.628606634,0.8002,122.125
,C5888,VRJBEVQGJOSGOX-UHFFFAOYSA-N,CCOC(=O)N1C(=O)c2c(C1=O)cccc2,-2.786828304,1.377,219.193
,C2259,VRJLVIBIRBMQHY-KHPPLWFESA-N,Clc1ccc2c(c1)/C(=C/CCCN1CCNCC1)/c1c(S2)cccc1.Cl,-6.324460518,5.9904,407.4
,C6211,VRJLVIBIRBMQHY-ZHACJKMWSA-N,CC(=O)Oc1ccc(cc1C(=O)O)Br,-2.589461507,2.0726,259.053
,C5727,VRNDXFKUQLCBRG-UHFFFAOYSA-N,CN(C(=O)/C(=C(\c1ccccc1)/C)/C)C,-2.898172211,2.5682,203.28
,C5726,VRQVVMDWGGWHTJ-CQSZACIVSA-N,CN(C(=O)/C(=C(/c1ccccc1)\C)/C)C,-2.898172211,2.5682,203.28
,C1891,VRRFWYJFMGDZAJ-UHFFFAOYSA-N,CCCCCCCCCCCCCC(=O)OCCCN1CCCCC1C,-7.903584094,6.4331,367.609
,C396,VRRLMHJRNFXPRI-UHFFFAOYSA-N,COc1ccc2c(c1)N(C[C@@H](CN(C)C)C)c1c(S2)cccc1,-4.2199998,4.5606,328.472
,C1899,VRYMTAVOXVTQEF-UHFFFAOYSA-N,C[NH+](CCOC(C1c2ccccc2c2c1cccc2)C1c2ccccc2c2c1cccc2)C.[Cl-],-7.884950343,2.1451,468.029
,C8495,VSBQZCIWVWNXFK-AQFVONAPSA-N,NC(=NCc1ccccc1)N.CC(=O)O,-0.902362079,1.9515,209.245
,C5665,VSDRAVPZXXXJDG-UHFFFAOYSA-N,CN(CCOc1cc(C)c(cc1C(C)C)OC(=O)C)C,-2.937127268,2.9841,279.375
,C3028,VSFUHUUDMVNIRO-UHFFFAOYSA-N,COc1ccc(cc1)CCN1CC[C@@]23[C@H]([C@H]1Cc1c3cc(cc1)O)CCCC2.Cl,-5.070442981,5.4418,413.98
,C6841,VSGYTOKLSWSEPK-UHFFFAOYSA-M,CCCCSc1ncnc2c1[nH]cn2,-2.181933257,2.2451,208.283
,C7627,VSJKWCGYPAHWDS-FQEVSTJZSA-N,CN1C(=O)NC2(C1=O)CCCCC2,-1.640467161,1.1376,182.22
,C7526,VSJRBQDMBFFHMC-UHFFFAOYSA-N,CC[N+](CCCOC(=O)C(c1ccccc1)(c1ccccc1)O)(CC)C.[Cl-],-1.723396948,0.3462,391.931
,C5222,VSLIUWLPFRVCDL-UHFFFAOYSA-N,CC[C@@]1(O)C(=O)OCc2c1cc1c3nc4ccccc4cc3Cn1c2=O,-3.226055443,2.0796,348.352
,C7499,VSNHCAURESNICA-UHFFFAOYSA-N,CC1(CC)NC(=O)NC1=O,-1.736130797,0.6521,142.156
,C3894,VSOOBQALJVLTBH-UHFFFAOYSA-N,CS(=O)(=O)c1ccc(cc1)c1nc2n(c1)cccc2,-4.178364966,3.4856,272.322
,C1659,VSRBKQFNFZQRBM-UHFFFAOYSA-N,NC(=O)NO,1.12,0.1351,76.0547
,C8616,VSUWLJBAVIYETB-UHFFFAOYSA-N,COC(=O)c1ccccc1S(=O)(=O)N,-0.779369761,1.9017,215.226
,C8312,VSVAVMVWTLLTCH-BJMVGYQFSA-N,CCCCCC(N)C,-1.08439897,2.6142,115.217
,C2832,VSYMNDBTCKIDLT-UHFFFAOYSA-N,COC1C=Cc2c(N1C(=O)OCc1ccccc1)cccc2,-5.305966488,3.8941,295.332
,C5039,VSYMNYNQYZDAPD-UHFFFAOYSA-N,O=C1NCCN1/N=C/c1ccc(o1)[N+](=O)[O-],-3.357152866,1.3368,224.174
,C7639,VSZDJZWCVDOADP-UHFFFAOYSA-N,CCC(COC(=O)N)(COC(=O)N)CC,-1.63224246,2.384,218.25
,C9146,VTAGVKVPFBOVRM-UHFFFAOYSA-N,O=C1C(=CC(=O)c2c1cccn2)NCCN1CCOCC1,0.057509497,0.5951,287.314
,C2045,VTJMSIIXXKNIDJ-UHFFFAOYSA-N,ClCCN(c1ccc(cc1)OC(=O)c1ccc(cc1)Br)CCCl,-7.025872618,4.9523,417.124
,C6726,VTLYHLREPCPDKX-UHFFFAOYSA-N,CC[N+](CCC(c1ccccc1)(c1ccccc1)C(=O)N)(C)C.[Br-],-2.26093895,0.6487,391.345
,C5180,VTMUHKQETIHHIO-UHFFFAOYSA-N,CC(C(c1ccc(cc1)Cl)C(=O)O)C,-3.259526496,3.1642,212.673
,C68,VTOJJDGNQGCRLP-UHFFFAOYSA-N,Clc1c(Cl)cccc1c1cccc(c1Cl)Cl,-7.2800002,5.9672,291.988
,C2018,VTTONGPRPXSUTJ-UHFFFAOYSA-N,c1ccc2c(c1)C(CC2)[NH2+]CC12CCC(CC1)(CC2)C[NH2+]C1CCc2c1cccc2.[Cl-].[Cl-],-7.113050965,-2.1632,473.521
,C3919,VTUSIVBDOCDNHS-UHFFFAOYSA-N,O=c1[nH]nc(c(n1)c1ccccc1)c1ccccc1,-4.161146776,2.4989,249.267
,C8698,VTYCSDLQJCTYFO-UHFFFAOYSA-N,CN(CCc1c[nH]c2c1cc(O)cc2)C,-0.671721689,1.9776,204.268
,C3675,VTYSSUAOJXDZSK-UHFFFAOYSA-N,CCCN(C(C(=O)Nc1c(C)cccc1C)CC)CC,-4.367491074,3.8254,276.417
,C2972,VUDHKNQACVHAKK-UHFFFAOYSA-N,CCCCN1CCC(CC1)(OC(=O)CC)C1CCCCC1.Cl,-5.140828709,4.8945,331.921
,C6038,VUFGUVLLDPOSBC-XRZFDKQNSA-M,CCOC(=O)c1c(OC)cc(cc1OC)Cc1cnc(nc1N)N,-2.691084223,2.5881,332.354
,C3778,VUFOSBDICLTFMS-UHFFFAOYSA-M,OC(=O)C1CCc2c1cc(N)c(c2)C1CCCCC1,-4.267756542,4.0121,259.343
,C4946,VUGRNZHKYVHZSN-UHFFFAOYSA-N,CC(=O)OCC1=C(C(=O)[O-])N2[C@H](SC1)[C@@H](C2=O)NC(=O)Cc1cccs1.[Na+],-3.423499209,-0.4136,418.42
,C2725,VUHOLWZZFYWBLJ-UHFFFAOYSA-M,CCCCCCCCCCCCCCCC[N+](CC)(C)C.[Br-],-5.468805409,3.568,378.474
,C8083,VUHULBJCIYOTTK-UHFFFAOYSA-N,CCCCCC(C#C)O,-1.286808318,1.5608,126.196
,C9646,VUIMBZIZZFSQEE-UHFFFAOYSA-N,CC[N+](c1ccccc1)(CC)C.[Br-],0.612297043,-0.3325,244.171
,C6939,VULLGYXKPUCSEU-UHFFFAOYSA-N,CCC(=O)c1ccc(cc1)N=O,-2.129870886,2.6772,163.173
,C5087,VUNCWTMEJYMOOR-UHFFFAOYSA-N,CC(=O)c1c[nH]c2c1cccc2,-3.323618377,2.3705,159.185
,C2839,VUPBWNXFSDRWJE-UHFFFAOYSA-N,CNC(CC12CC3(C)CC(C1)(C)CC(C2Cl)(C3)C)C.Cl,-5.29878802,5.7813,320.341
,C219,VUSLTUGEJURGLB-UHFFFAOYSA-N,ClC1=C(Cl)C(C(=C1Cl)Cl)(Cl)Cl,-5.1799998,4.5523,272.772
,C4105,VUVPNTYTOUGMDG-UHFFFAOYSA-N,COc1ccc(cc1)N(C(=O)c1ccc(cc1)Cl)CCCC(=O)O,-4.041773721,3.8602,347.793
,C5483,VUXURAAEUBMRKC-YGICXTQQSA-N,CC(=O)Nc1cc(Cl)c(cc1Cl)Cl,-3.049094212,3.6782,238.498
,C8450,VUZCWTUAXNDZSX-UHFFFAOYSA-N,OCCNC(=S)NCC=C,-0.942306295,0.4106,160.237
,C3290,VUZFUHYMELMOSR-UHFFFAOYSA-L,OS(=O)(=O)O.CN1CCC(CC1)CCN1CC[C@@]23[C@H]([C@H]1Cc1c3cc(cc1)O)CCCC2,-4.747813111,4.4863,466.634
,C4740,VUZKURMHQUAVFR-UHFFFAOYSA-N,Oc1ccc2c(c1)cc1c(n2)cccc1,-3.579563392,3.0936,195.217
,C9431,VVAZXWHTJKJOJO-JXMROGBWSA-N,CCOC(=O)CC[N+](CCOCC[N+](CCC(=O)OCC)(C)C)(C)C.[Cl-].[Cl-],0.36310006,-4.9298,433.411
,C7327,VVDGWALACJEJKG-UHFFFAOYSA-N,CCN(CCOc1ccccc1OC)CC.Cl,-1.86682096,3.2178,259.772
,C3897,VVFLDPAQGSOAKR-UHFFFAOYSA-N,CCC(=O)N1C2CCCC1CN(C2)C/C=C/c1ccccc1,-4.178177274,3.0509,298.423
,C6639,VVIZQGRJJPEJPT-RAIISBKQSA-N,CC(=O)NCc1c(I)c(NC(=O)C)c(c(c1I)C(=O)O)I,-2.320798962,3.257,627.94
,C2983,VVMXABGKHYLKIX-NTEUORMPSA-N,CCC(Oc1ccc(cc1)C(=O)OCCCN1CCCCC1C)C,-5.128607667,4.2231,333.465
,C8983,VVNCNSJFMMFHPL-VKHMYHEASA-N,C[n+]1c(C)cc(nc1N)Nc1ccc2c(c1)c(=N)cc(n2C)C.[Cl-].Cl,-0.250858715,0.3798,381.303
,C5318,VVNYEECDRVTLHM-UHFFFAOYSA-N,CCCN(CC(=O)N/N=C/c1ccc(o1)[N+](=O)[O-])CCC,-3.151624938,2.674,296.322
,C1545,VVNYZYBWULAGJY-UHFFFAOYSA-N,N[C@H](C(S)(C)C)C(=O)O,-0.13,0.807,149.211
,C6871,VVPAATLHWUDQMI-MZIRSVLISA-N,CCC(COC(=O)N(C)C)(CO)CC,-2.165084125,1.4833,203.279
,C7075,VVQAGLMWVDPLLF-UHFFFAOYSA-N,CC(Nc1c(C)n(C)c(=O)n(c1=O)c1ccccc1)C,-2.051090561,1.7379,273.33
,C2600,VVQNEPGJFQJSBK-UHFFFAOYSA-N,O[C@H]([C@H](C(=O)O)O)C(=O)O.COc1ccc2c(c1)[C@]13CCCC[C@H]3[C@@H](C2)N(CC1)CC=C(C)C,-5.66019207,2.5351,475.574
,C2361,VVQUAWREPHCLDH-UHFFFAOYSA-N,COc1cc(cc(c1OC)OC)C(=O)OCCOCCN1CCN(CC1)C(c1ccc(cc1)Cl)c1ccccc1.Cl.Cl,-6.092375105,6.4262,642.01
,C1429,VVWYBGBTZWEMKT-UHFFFAOYSA-L,COC(=O)C(=C)C,-0.80000001,0.7355,100.116
,C8958,VWBQYTRBTXKKOG-IYNICTALSA-M,Cc1cc(=O)c2n([nH]1)cnn2,-0.281076787,-0.274,150.138
,C9435,VWFBNRGXDCXMOJ-ZROIWOOFSA-N,CC[N+](CCC[n+]1ccc2c(c1)cccc2)(CC)CC.[Br-].[Br-],0.364271037,-2.5981,432.236
,C6731,VWGJUXTWIWCQGL-UHFFFAOYSA-M,CC[C@@H](C(=O)O[C@H]1C[C@H](O)C=C2[C@H]1[C@@H](CC[C@H](C[C@H](CC(=O)[O-])O)O)[C@H](C=C2)C)C.[Na+],-2.258196312,1.1057,446.51
,C4144,VWMQXAYLHOSRKA-UHFFFAOYSA-N,N#C/C(=N/Nc1cccc(c1)Cl)/C(=O)OC,-4.008382771,1.87748,237.642
,C8939,VWNWVCJGUMZDIU-UHFFFAOYSA-N,CC[N+](CCOC(=O)C(c1cccs1)(C1CCCC1)O)(CC)C.[Br-],-0.32263892,0.1595,420.405
,C6607,VWPOSFSPZNDTMJ-UCWKZMIHSA-N,Clc1ccc2c(c1)nco2,-2.339955132,2.4812,153.566
,C2935,VWRCYAZJKNPEQR-NIEARKAZSA-N,CC(N(C)C)CN1c2cc(ccc2Sc2c1cccc2)S(=O)(=O)N(C)C,-5.180828772,4.6355,391.551
,C7745,VWRXSXTYPJLXGI-UHFFFAOYSA-N,OC(COc1cccc2c1C[C@H](O)[C@@H](C2)O)CNC(C)(C)C,-1.569883744,1.0257,309.401
,C4670,VWSLLSXLURJCDF-UHFFFAOYSA-N,O[C@H]([C@H](C(=O)O)O)C(=O)O.CN1CCCN=C1/C=C/c1cccs1,-3.625072469,-0.2538,356.394
,C3966,VWXIHLCLIOQWRA-UHFFFAOYSA-N,Oc1ccccc1CNCC1CCC(CC1)CNCc1ccccc1O.CC(=O)O.CC(=O)O,-4.128551189,4.7472,474.59
,C8970,VWZAGCZUPZKTET-UHFFFAOYSA-N,CC1=NCCN1,-0.260455671,-0.2276,84.1197
,C1090,VWZJKIUSSAXDAH-RRQHEKLDSA-N,Oc1ncc2c(n1)nccn2,-1.95,0.1254,148.122
,C1733,VWZPIJGXYWHBOW-UHFFFAOYSA-N,OS(=O)(=O)O.CCCCN(CCCC)CCCOC(=O)c1ccc(cc1)N.CCCCN(CCCC)CCCOC(=O)c1ccc(cc1)N,-11.85315733,9.0262,710.964
,C6854,VXAKLOLHHGJHEX-UHFFFAOYSA-M,N/C(=N\[C@H]1CC2CC1CC2)/COS(=S)(=O)O,-2.174219191,2.8997,264.365
,C2250,VXCUXAQPTKJOCT-MDZDMXLPSA-N,CCCCCCCCOc1ccccc1C(=O)Nc1ccc(cc1)C(=O)OCC[N+](CC)(CC)C.[Br-],-6.342713319,3.3984,563.567
,C9346,VXEAYBOGHINOKW-UHFFFAOYSA-N,COc1ccc(cc1C(C([N+](C)(C)C)C)O)OC.[Cl-],0.302077766,-1.1641,289.798
,C5540,VXFJYXUZANRPDJ-MQBSTWLZSA-N,O=C(/C=C/c1ccccc1)CCN1CCN(CC1)c1ccccn1,-3.017119836,2.8791,321.416
,C3439,VXIVSQZSERGHQP-UHFFFAOYSA-N,CN(CC/C=C/1\c2ccccc2C=Cc2c1cccc2)C.Cl,-4.592491605,5.3558,311.848
,C2641,VXJABHHJLXLNMP-UHFFFAOYSA-N,CCOC(=O)[C@@H](N[C@H](C(=O)N1[C@H]2CCCC[C@H]2C[C@H]1C(=O)O)C)CCc1ccccc1,-5.588695581,3.1021,430.537
,C1558,VXJXLPVDCAXFRR-BTJKTKAUSA-N,NC(=O)CCl,-0.02,0.4108,93.5123
,C6746,VXLCNTLWWUDBSO-UHFFFAOYSA-N,CCCNC(COC(=O)c1ccccc1)(C)C,-2.248800835,3.0125,235.322
,C2208,VXMNWNHDIDBDCN-UHFFFAOYSA-M,OC(=O)/C=C\C(=O)O.CCCC(=O)c1ccc2c(c1)N(CCCN(C)C)c1c(S2)cccc1,-6.471240042,5.0006,470.581
,C5745,VXNZUUAINFGPBY-UHFFFAOYSA-N,CCC1Nc2cc(Cl)c(cc2S(=O)(=O)N1)S(=O)(=O)N,-2.882906247,3.756,325.792
,C9106,VXQHWNOTPARMJB-INEOJGKQSA-N,C[n+]1ccc(cc1)c1cscc1.[I-],-0.017780356,-0.7564,303.163
,C1095,VXSCPERJHPWROZ-UHFFFAOYSA-N,CCC=C,-1.9400001,1.5824,56.1063