Name,Compound ID,InChIKey,SMILES,logS,logP,MW
,C4862,BLTGLBUXRZQJCJ-UHFFFAOYSA-N,CCS(=O)(=O)c1ccc(c2c1cccc2)S(=O)(=O)N,-3.493288216,4.1427,299.366
,C9676,BLTOCKUZVXQTPH-UHFFFAOYSA-N,Oc1ccc(cc1)[N+](C)(C)C.[Br-],0.634285567,-1.4071,232.118
,C7445,BLUAFEHZUWYNDE-NNWCWBAJSA-N,COc1ccccc1NCC(=O)C,-1.781212879,1.7691,179.216
,C4483,BLVSIGRJPXXNPD-UHFFFAOYSA-N,O=C1O[C@@H]2O[C@@]3(C)CC[C@@H]4[C@]2([C@H]([C@H]1C)CC[C@H]4C)OO3,-3.736017497,2.3949,282.332
,C5250,BLXXJMDCKKHMKV-UHFFFAOYSA-N,COP(=O)(Oc1ccc(cc1Cl)[N+](=O)[O-])OC,-3.206819691,3.5511,281.587
,C4859,BMCQMVFGOVHVNG-TUFAYURCSA-N,COc1ccc2c(c1)ccc(c2)CCC(=O)C,-3.496297759,3.37,228.286
,C3033,BMKDZUISNHGIBY-UHFFFAOYSA-N,CCCC(=O)O[C@@]1(CC[C@@H]2[C@]1(C)C[C@H](O)[C@H]1[C@H]2CCC2=CC(=O)CC[C@]12C)C(=O)CO,-5.068781662,3.1326,432.55
,C9553,BMLIZLVNXIYGCK-UHFFFAOYSA-N,O=C1NC(=O)CN(C1)CC(N1CC(=O)NC(=O)C1)C,0.50894091,-2.1749,268.269
,C750,BMLKPGJBYUTIHT-UHFFFAOYSA-N,CN(C(=O)Nc1ccc(cc1)Cl)C,-2.8900001,2.5065,198.649
,C7302,BMLQSGLVZQCULY-DHZHZOJOSA-N,CCOc1ncnc2c1[nH]cn2,-1.886908904,0.7516,164.165
,C4444,BMOFKCBGQVZIAS-UHFFFAOYSA-N,CCC(=O)N1CC(C)N(C(C1)C)C/C=C/c1ccccc1,-3.766805759,2.9068,286.412
,C8874,BMRIMRMSWCLJIU-YGICXTQQSA-N,OC(CN1CCN(CC1)C)COc1ccccc1C(=O)C.Cl.Cl,-0.413424627,2.3561,365.295
,C2805,BMTAFVWTTFSTOG-UHFFFAOYSA-N,Oc1ccc2c(c1)[C@]13CCCC[C@H]3[C@@H](C2)N(CC1)CCc1ccc(cc1)[N+](=O)[O-].Cl,-5.344612029,5.8646,428.952
,C524,BMTLAPIIHHSIFJ-UHFFFAOYSA-N,CCSC(=O)N(CC(C)C)CC(C)C,-3.6800001,3.4735,217.371
,C5511,BMVGRQFYWXVLDD-UHFFFAOYSA-N,O=C1NCCC2(O1)CCN(CC2)CCCC(=O)c1ccc(cc1)F,-3.032892873,3.0198,334.385
,C8807,BMVXCPBXGZKUPN-UHFFFAOYSA-N,CCNC(C)(C)C.Cl,-0.501289641,2.5873,137.651
,C1353,BMZCSDMMUVZRRF-UHFFFAOYSA-N,CCCCCCN,-1.1,2.2257,101.19
,C4746,BNBQRQQYDMDJAH-UHFFFAOYSA-N,CC([NH+](/C(=N/C(=N/c1ccc(cc1)Cl)/N)/N)C)C.[O-]C(=O)C,-3.576106906,0.6808,327.81
,C7274,BNCADMBVWNPPIZ-UHFFFAOYSA-N,C1COc2c(O1)cccc2,-1.911821567,1.4578,136.148
,C4953,BNFDLGUZDIWYJK-UHFFFAOYSA-N,COCN(c1nc(nc(n1)N(COC)COC)N(COC)COC)COC,-3.418369159,-0.0858,390.435
,C5069,BNHGKKNINBGEQL-UHFFFAOYSA-M,C[NH+](CCOC(c1ccc(cc1)C)c1ccccc1)C.[Cl-],-3.333214475,-0.7505,305.842
,C9138,BNIXVQGCZULYKV-UHFFFAOYSA-N,CCC1(CCC(C)C)C(=O)NC(=NC1=O)[O-].[Na+],0.049141544,1.0263,248.254
,C848,BNPSSFBOAGDEEL-UHFFFAOYSA-N,ClC(C(Cl)(Cl)Cl)Cl,-2.5999999,3.1603,202.294
,C8957,BNPWEZZZLIFSAA-UHFFFAOYSA-N,OS(=O)(=O)O.OCc1cc(ccc1O)C(CNC(C)(C)C)O.OCc1cc(ccc1O)C(CNC(C)(C)C)O,-0.283830225,3.8218,576.7
,C5078,BNQKBUOGDLGSFJ-UHFFFAOYSA-N,COC(=O)NC1CCCc2c(C1)c(OC)c(c(c2)OC)OC,-3.326114111,2.7067,309.358
,C4236,BNTXITGTFRZWPE-UHFFFAOYSA-N,CCCN1CCC(C1)OC(=O)Nc1c(C)cccc1C,-3.936356634,3.3471,276.374
,C8345,BNUHAJGCKIQFGE-UHFFFAOYSA-N,OC(c1ccccc1)C(NC(C)C)C.Cl,-1.036969284,3.2994,229.746
,C916,BNWQEHYYXTVKOF-UHFFFAOYSA-N,COc1ccc(cc1)[N+](=O)[O-],-2.4100001,2.1266,153.135
,C8229,BNWQPZXARAASNP-UHFFFAOYSA-N,c1ccc(cc1)Cn1cncn1,-1.148458634,1.3264,159.188
,C3692,BNWXPOSRRBVXAD-UHFFFAOYSA-N,CCN(CCOc1c(ccc(c1C(=O)OC)C)C(C)C)CC,-4.354212973,3.6256,307.428
,C2915,BNXDKTBMUIPKNM-UHFFFAOYSA-L,OC(=O)C(c1ccc2c(c1)nc(o2)c1ccc(cc1Cl)Cl)C,-5.206410084,4.9897,336.169
,C1864,BNXZHVUCNYMNOS-UHFFFAOYSA-N,CC[N+](C1c2ccccc2c2c1cccc2)(CCCCCCCCCC[N+](C1c2ccccc2c2c1cccc2)(CC)CC)CC.[Br-].[Br-],-8.198091315,5.3684,774.753
,C7963,BNYKNAMROLCQRS-UHFFFAOYSA-N,CCCCN1CCCC1=O,-1.39936936,1.3468,141.211
,C7126,BNZYRKVSCLSXSJ-IOSLPCCCSA-N,CN1CCN(CC1)CC(c1ccccc1)(c1ccccc1)O,-2.023192392,2.0457,296.407
,C7744,BOAAOVKNVJHBAN-ZXDBEMHSSA-N,OC[C@H]1O[C@@]([C@@H]([C@@H]1O)O)(CO)n1cnc2c1ncnc2N,-1.570062557,-2.2523,297.267
,C2171,BOARLCNCVBZNNU-UHFFFAOYSA-N,CN(CC/C=C\1/c2ccccc2Sc2c1c(ccc2)C(F)(F)F)C.Cl,-6.557060603,6.3554,385.874
,C7858,BOASKSPVGGTZKJ-UHFFFAOYSA-N,CN(c1c(C)n(C)c(=O)n(c1=O)C)C,-1.48536357,-0.5416,197.234
,C8183,BOBIZYYFYLLRAH-UHFFFAOYSA-N,C1Sc2ncccc2NC1=O,-1.203592454,1.2638,166.2
,C5303,BOCUKUHCLICSIY-UHFFFAOYSA-N,Clc1ccc2c(c1)[nH]c(=S)o2,-3.164832746,3.1438,185.631
,C2927,BOCVNVQHUWMOEY-UHFFFAOYSA-N,Clc1cc2NC(NS(=O)(=O)c2cc1S(=O)(=O)N)C1CC2CC1C=C2,-5.19107198,4.5582,389.878
,C4666,BODDZCXQPQPRES-OYALTWQYSA-N,Ic1ccc(nc1)SCCCN1CSCC1.Cl,-3.627755318,3.9146,402.746
,C5415,BOEGTKLJZSQCCD-UEKVPHQBSA-N,OC[C@@H]1O[C@@H](O[C@H]([C@@H](C(=O)N[C@@H]([C@H]([C@@H](C(=O)N[C@H](C(=O)NCCc2scc(n2)c2scc(n2)C(=O)NCCC[S+](C)C)[C@H](O)C)C)O)C)NC(=O)c2nc(nc(c2C)N)[C@H](CC(=O)N)NC[C@@H](C(=O)N)N)c2[nH]cnc2)[C@H]([C@H]([C@@H]1O)O)O[C@H]1O[C@H](CO)[C@H]([C@@H]([C@@H]1O)OC(=O)N)O.[Cl-],-3.093483047,-4.9718,1451
,C6337,BOFKYYWJAOZDPB-FZNHGJLXSA-N,O=C([C@@H](c1ccc(cc1)O)N)N[C@@H]1C(=O)N2[C@@H]1SCC(=C2C(=O)O)C,-2.515047603,1.1796,363.388
,C2466,BOFQCMILEGGFJN-UHFFFAOYSA-N,CCCCC(=O)O[C@@]1(CC[C@@H]2[C@]1(C)C[C@H](O)[C@H]1[C@H]2CCC2=CC(=O)C=C[C@]12C)C(=O)CO,-5.889026297,3.2987,444.56
,C5350,BOFYHBVFGWJLIZ-UHFFFAOYSA-N,CCCC(C(C(COC(=O)N)CC)OC(=O)N)C,-3.134497541,3.4086,260.33
,C3609,BOGMJPXXRPGSRP-MHDYBILJSA-N,CCN(CCOc1ccccc1C(=O)Nc1ccccc1)CC,-4.433276604,3.7325,312.406
,C7524,BOHCMQZJWOGWTA-UHFFFAOYSA-N,OS(=O)(=O)O.NCC(=O)OC[C@H]([C@@H](c1ccc(cc1)S(=O)(=O)C)O)NC(=O)C(Cl)Cl,-1.723730951,2.5139,511.352
,C7092,BOKGTLAJQHTOKE-UHFFFAOYSA-N,N#Cc1cccc(c1)C,-2.040581581,1.86668,117.148
,C744,BOKLXRSOBOAPTP-UHFFFAOYSA-N,Oc1cccc2c1cccc2O,-2.9200001,2.251,160.169
,C8301,BONORRGKLJBGRV-UHFFFAOYSA-N,COC(=O)C(=O)N1C2CCC1CN(C2)C,-1.096396711,-0.6598,212.246
,C8887,BOOMHTFCWOJWFO-UHFFFAOYSA-N,CN(CCN(c1ccccn1)Cc1cccs1)C.Cl,-0.391204944,3.5133,297.847
,C8910,BOPIMTNSYWYZOC-VNHYZAJKSA-N,OC(=O)c1ncccc1N,-0.357802843,0.9432,138.124
,C3546,BOQSSGDQNWEFSX-UHFFFAOYSA-N,C=C1CCC[C@]2([C@H]1C[C@@H](CC2)C(O)(C)C)C,-4.484352554,3.92,222.366
,C7050,BOVGTQGAOIONJV-UHFFFAOYSA-N,CC(OC(=O)C(=C)C)C,-2.058571784,1.5141,128.169
,C1681,BOZCACJUSDJWPC-UHFFFAOYSA-N,O=C(NS(=O)(=O)c1ccc(cc1)C)NN1CC2C(C1)CCC2	,-4.29 ,3.4303,323.411
,C3987,BPALSJRJYDXLOS-UHFFFAOYSA-M,CCCCCCCSCCCCN1CCSC1.Cl,-4.115716338,5.2164,311.978
,C5634,BPBYGUGIURNKEG-UHFFFAOYSA-N,CCCCCCC1(C)OC(=O)[N-]C1=O.[Na+],-2.952150973,2.0965,221.229
,C3065,BPEUAZQCLHIVHY-UHFFFAOYSA-N,O=C1NC(=O)C2(N1)c1ccccc1CCc1c2cccc1,-5.024574623,2.5258,278.305
,C3394,BPGOVPPTXCAFFA-UHFFFAOYSA-N,CCCCCCCCCSCCCN1CCSC1.Cl,-4.634119043,5.6065,326.004
,C2964,BPICBJMTKZLFNL-UHFFFAOYSA-N,CCN(CCCNc1nc(c(o1)c1ccccc1)c1ccccc1)CC,-5.147220495,5.2254,349.469
,C4914,BPICBUSOMSTKRF-UHFFFAOYSA-N,C=CCc1cc(Cl)ccc1OCC(CO)O,-3.44504985,1.8005,242.699
,C2781,BPIUKMIZYGZZRF-VAWYXSNFSA-N,Cc1cccc(c1NC1=NCCCS1)C,-5.391452625,2.7168,220.334
,C7018,BPKUDUSVDVLOPY-UHFFFAOYSA-N,CN(/N=N/c1ccccc1C(=O)N)C,-2.080770205,2.0461,192.218
,C4204,BPLBGHOLXOTWMN-MBNYWOFBSA-N,Oc1ccc(cc1)C1(Oc2ccccc2NC1=O)c1ccc(cc1)O,-3.961789943,3.5105,333.337
,C4799,BPLUKJNHPBNVQL-UHFFFAOYSA-N,O=C(N[C@@H]1C(=O)N2[C@@H]1SC([C@@H]2C(=O)O)(C)C)COc1ccccc1,-3.53979932,1.0259,350.39
,C2183,BPMFZUMJYQTVII-UHFFFAOYSA-N,c1ccc(cc1)[As](c1ccccc1)c1ccccc1,-6.532688851,2.2028,306.233
,C1236,BPPMPRBFXKFHSD-UHFFFAOYSA-N,NC(=N)NCC(=O)O,-1.51,-0.255,117.107
,C9038,BPRGSDPGYCSOSJ-UHFFFAOYSA-L,Cc1cccc(c1)C(C([NH3+])C)O.[Cl-],-0.137375644,-2.3372,201.693
,C3862,BPRYUXCVCCNUFE-UHFFFAOYSA-N,Oc1ccc(cc1NCS(=O)(=O)[O-])/[As]=[As]/c1ccc(c(c1)NCS(=O)(=O)[O-])O.[Na+].[Na+],-4.195590515,0.5088,598.222
,C1059,BPVYCXMGJPKOTQ-UHFFFAOYSA-N,Cc1cc(C)c(c(c1)C)O,-2.05,2.3174,136.191
,C7787,BPWOKDWTZDTHNX-UHFFFAOYSA-N,NCCc1cccc(c1)C(F)(F)F,-1.538096958,2.9069,189.178
,C2965,BPYKTIZUTYGOLE-IFADSCNNSA-N,CCN(CC(=O)N1c2ccccc2Sc2c1cccc2)CC,-5.146449256,4.2227,312.429
,C3245,BQDBKDMTIJBJLA-UHFFFAOYSA-N,C=CC1=C(C)/C(=C/c2[nH]c(c(c2C)CCC(=O)O)Cc2[nH]c(c(c2CCC(=O)O)C)/C=C/2\NC(=O)C(=C2C=C)C)/NC1=O,-4.812670507,5.1888,584.662
,C3673,BQDLTSGIXOYYHY-QPJJXVBHSA-N,NC(=O)C1CCN(CC1)CCCN1c2ccccc2Sc2c1cc(cc2)S(=O)(=O)C,-4.370873962,5.0642,445.598
,C7513,BQENDLAVTKRQMS-SBBGFIFASA-L,ONC(=O)/C=C/c1ccc(cc1)OC,-1.729709117,1.6047,193.199
,C1798,BQETUQVXROQUPT-UHFFFAOYSA-N,O=C(O[C@H]1CC[C@]2([C@H](C1(C)C)CC[C@@]1([C@@H]2C(=O)C=C2[C@@]1(C)CC[C@@]1([C@H]2C[C@](C)(CC1)C(=O)[O-])C)C)C)CCC(=O)[O-].[Na+].[Na+],-9.244617084,4.1589,614.72
,C8440,BQGDBXHKMJKCKX-UHFFFAOYSA-N,CSc1c(Cl)nc(nc1N1CCN(CC1)C)N,-0.947447983,1.77,273.786
,C2821,BQGXUBAXUARNTB-UHFFFAOYSA-N,CC(c1ccc2c(c1)c1ccccc1cc2)C(=O)O,-5.326573637,4.1811,250.292
,C3957,BQHBRMFSBVLTGL-UHFFFAOYSA-M,CCC(=O)OC1(CCN(CC1)CC(C)C)c1ccccc1.Cl,-4.136476766,4.3268,325.873
,C2229,BQHCQAQLTCQFJZ-UHFFFAOYSA-N,ClCCN(c1cc(ccc1C)C(=O)NC(C(=O)[O-])Cc1ccccc1)CCCl.[Na+],-6.40563026,2.7609,445.315
,C16,BQIPXWYNLPYNHW-UHFFFAOYSA-N,Clc1cc(Cl)c(c(c1)c1cc(Cl)c(cc1Cl)Cl)Cl,-8.6000004,7.274,360.878
,C5993,BQJCRHHNABKAKU-AROOSSJZSA-N,OC(COc1cc(C)c(c(c1C)C)OC(=O)C)CNC(C)C,-2.720118614,2.6657,309.401
,C631,BQJCRHHNABKAKU-KBQPJGBKSA-N,O[C@H]1C=C[C@H]2[C@]34[C@@H]1Oc1c4c(C[C@@H]2N(CC3)C)ccc1O,-3.28,1.136,285.338
,C5145,BQJJCIYAPLCGJD-UHFFFAOYSA-N,O[C@H]1C=C[C@@H]2[C@@]34[C@H]1Oc1c4c(C[C@H]2N(CC3)C)ccc1O,-3.282180939,1.136,285.338
,C1769,BQJODPIMMWWMFC-UHFFFAOYSA-N,Clc1cnc(c(c1)Cl)OCCCCCNCCSSCCNCCCCCOc1ncc(cc1Cl)Cl.Cl.Cl,-9.878475187,9.835,689.416
,C7598,BQMDGYJPLNFICG-UHFFFAOYSA-N,CCN(C(=O)c1ccc(c(c1)OC)O)CC,-1.665156964,1.8828,223.268
,C2896,BQNBYMWITANTPB-UHFFFAOYSA-N,CCN(CCOc1ccc(cc1C(=O)Nc1ccccc1)Cl)CC,-5.234796602,4.3859,346.851
,C5017,BQNDVYLVJFLZRV-UHFFFAOYSA-N,NC(=O)c1ccc(cc1)c1sc2c(n1)cc(cc2)C(=O)C,-3.374886111,3.9651,296.344
,C7869,BQUFQLHGCASYAP-BTKVJIOYSA-N,FCCCSC#N,-1.479522465,1.56028,119.161
,C1820,BQUJIAHAZAJIKW-UHFFFAOYSA-N,CCCCCCCCOc1ccc(c2c1cccc2)C(=N)[NH+](C(C)C)C(C)C.[Cl-],-8.808018239,2.7099,419.043
,C5877,BQULAXAVRFIAHN-PPHPATTJSA-N,OC(CN1CCN(CC1)c1ccccc1)COc1ccccc1C(O)C,-2.795382005,2.3047,356.459
,C9225,BQXQGZPYHWWCEB-UHFFFAOYSA-N,CCOC(=O)[C@H](Cc1ccc(cc1)O)N.Cl,0.176615907,2.3274,245.703
,C3489,BQZJOQXSCSZQPS-UHFFFAOYSA-N,OC(COc1cccc2c1c1ccccc1[nH]2)CNC(C)C,-4.544134987,3.4497,298.379
,C6052,BQZRLLBUGAVTNV-BTJKTKAUSA-N,COC(C(=O)c1ccccc1)c1ccccc1,-2.683648951,3.257,226.27
,C2818,BRABPYPSZVCCLR-UHFFFAOYSA-N,OC(=O)/C=C\C(=O)O.CCCNCC1COC2(O1)c1ccccc1OCc1c2cccc1,-5.326847709,3.2978,441.474
,C2530,BRBAEHHXGZRCBK-UHFFFAOYSA-N,COc1ccc2c(c1)N(CCCN(C)C)c1c(S2)cccc1,-5.779793749,4.3146,314.445
,C7718,BRBKOPJOKNSWSG-UHFFFAOYSA-N,OCC(CO[N+](=O)[O-])(CO[N+](=O)[O-])CO[N+](=O)[O-],-1.585001271,0.1596,271.139
,C1075,BRBRZCHDAPWVRY-UHFFFAOYSA-N,NC(=N)NS(=O)(=O)c1ccc(cc1)N,-1.99,2.2935,214.245
,C3849,BRBTWQMWSVOGOW-UHFFFAOYSA-N,CC[NH+](CCC1(C2CCCCC2)C(=O)Oc2c1cccc2)CC.[Cl-],-4.207981297,-0.2575,351.911
,C4919,BRHCJSYLVUWFLP-UHFFFAOYSA-N,CCCCOc1ccc(cc1C)CC(=O)O,-3.441652155,2.801,222.28
,C7064,BRHWDUPLRLPVDQ-UHFFFAOYSA-N,CCOC(=O)Cc1ccc(cc1)C(=O)N1CCC2CC1N(C)C2,-2.054633644,1.7917,316.395
,C8020,BROSADJFIKBHRF-UHFFFAOYSA-N,OCCN(C12CC3CC(C2)CC(C1)C3)CCO.Cl,-1.336817294,2.0438,275.815
,C5179,BRSBHYWFYBOUGG-UHFFFAOYSA-N,CCC(C(c1ccccc1)(C(=O)N)CCN(C)C)C,-3.260596373,3.1078,262.39
,C2539,BRSYMLUWFHEDPI-UHFFFAOYSA-N,CC[NH+](CC(OC(=O)C(c1ccccc1)c1ccccc1)C)CC.[Cl-],-5.759949938,-0.3211,361.906
,C4027,BRUIVTQOZKHRLZ-YGICXTQQSA-N,NC(=O)C1(OC1Cl)c1ccc(c(c1Cl)Cl)Cl,-4.091095863,3.6228,300.953
,C3261,BRUQQQPBMZOVGD-XFKAJCMBSA-N,Oc1ccc2c(c1)[C@]13CCCC[C@H]3[C@@H](C2)N(CC1)CCc1ccccc1.Cl,-4.786326328,5.4332,383.954
,C7306,BRUZQRBVNRKLJG-UHFFFAOYSA-N,COc1ccc2c3c1O[C@@H]1[C@@]43CCN([C@H](C2)[C@]4(O)CCC1=O)C,-1.879621271,0.9861,315.364
,C1519,BRYYFHODWLMSIM-UHFFFAOYSA-N,CC(COC(=O)N)C,-0.30000001,1.438,117.146
,C6033,BRZANEXCSZCZCI-UHFFFAOYSA-N,O=C(C1NCCNC1)Nc1c(C)cc(cc1C)C.Cl.Cl,-2.693924981,3.4463,320.258
,C5673,BRZHTUISXPQTLF-QYEGGRDRSA-N,O=C(c1cccnc1)Nc1c(=O)n(n(c1C)C)c1ccccc1,-2.930922975,2.2047,308.335
,C1866,BSDDSRKVZZVVQX-UHFFFAOYSA-N,CC(CCC[C@H]([C@H]1CC[C@@H]2[C@]1(C)CC[C@H]1[C@H]2C[C@H]([C@@]2([C@]1(C)CC[C@@H](C2)OC(=O)CCC(=O)O)O)OC(=O)C)C)C,-8.180970934,6.5408,562.778
,C3701,BSFJGCCAXDCMOX-UHFFFAOYSA-N,CNc1c2ccccc2nc2c1cccc2,-4.348732582,3.5027,208.258
,C8728,BSHLEKSMWWVWPI-UHFFFAOYSA-N,Nc1ccc(cc1)S(=O)(=O)[N-]c1nccc(n1)C.[Na+],-0.612943171,3.4233,286.285
,C3685,BSMUOLWVMZUZON-MUCZFFFMSA-N,CCN(CCOc1c(ccc(c1C(=O)O)C)C(C)C)CC,-4.360260516,3.5372,293.401
,C2329,BSNKHEKTRWNNAC-UHFFFAOYSA-N,CCCCCOc1cccc(c1)NC(=O)O[C@@H]1CCCC[C@H]1[NH+]1CCCC1.[Cl-],-6.145476528,2.4402,410.978
,C2831,BSPCSKHALVHRSR-SCSAIBSYSA-N,[O-][N+](=O)c1ccc(cc1)CCc1ccc(cc1)[N+](=O)[O-],-5.311132215,4.3346,272.256
,C1082,BSRDNMMLQYNQQD-UHFFFAOYSA-N,CC[C@H](Cl)C,-1.96,2.0237,92.5673
,C9925,BSUIFZACDFHAMH-UHFFFAOYSA-N,N#CCNCC#N,1.021796636,0.01406,95.1026
,C5621,BSUVNHZVLSEXMX-UHFFFAOYSA-N,Cc1ccc2c(c1)c(C)cc(n2)OCCCNCCSS(=O)(=O)O,-2.965622728,4.2178,370.487
,C5742,BSVYJQAWONIOOU-UHFFFAOYSA-N,Clc1ccc(c(c1)Cl)C1(CO1)C(=O)N,-2.885593345,2.4045,232.063
,C2138,BSXDHIQUZKZSEK-UHFFFAOYSA-N,CCN(CCOc1ccc2c(c1)C(=O)c1c2ccc(c1)OCCN(CC)CC)CC.Cl.Cl,-6.696706859,5.9432,483.471
,C4276,BSYNRYMUTXBXSQ-UHFFFAOYSA-N,C[NH+](CCOC(c1ccc(cc1)C)c1ccc(cc1)C)C.[Cl-],-3.899672524,-0.4421,319.869
,C1162,BTAGRXWGMYTPBY-UHFFFAOYSA-N,CC(=O)Oc1ccccc1C(=O)O,-1.72,1.3101,180.157
,C36,BTANRVKWQNVYAZ-SCSAIBSYSA-N,Clc1c(ccc(c1Cl)Cl)c1ccc(c(c1Cl)Cl)Cl,-8.0100002,7.274,360.878
,C1598,BTCSSZJGUNDROE-UHFFFAOYSA-N,CC[C@H](O)C,0.43000001,0.7772,74.1216
,C9936,BTFHIKZOEZREBX-UHFFFAOYSA-N,NCCCC(=O)O,1.100596236,0.5102,103.12
,C7707,BTFMCMVEUCGQDX-UHFFFAOYSA-N,C=CCn1c(=O)n(C)c2c(c1=O)n(C)cn2,-1.596246204,-0.3803,220.228
,C2158,BTFSCJCNYHKTAH-UHFFFAOYSA-N,OCCC1CCN(CC1)CCCN1c2ccccc2Sc2c1cc(cc2)C(=O)C,-6.603942653,4.9793,410.572
,C2721,BTHCJHQOYFUIMG-REYNEDSXSA-N,COc1cc2c(cc1OC)CC[NH+](C2CCCc1ccc(cc1)Cl)C.[Br-],-5.476930163,2.0652,440.802
,C7733,BTHSSYLQNVNWJG-UHFFFAOYSA-N,C/C=C\1/C[C@@H](C)[C@@](C)(O)C(=O)OC[C@@H]2[C@@H]3[C@H](OC1=O)CCN3CC2,-1.57576072,1.2106,337.411
,C8865,BTIWDWOBSODVCJ-UHFFFAOYSA-N,CC1=NS(=O)(=O)c2c(N1)nccc2,-0.426230157,1.2686,197.214
,C6005,BTJIUGUIPKRLHP-UHFFFAOYSA-N,CCN(CC(C(=O)c1ccccc1)(C)C)CC.Cl,-2.710903551,4.0393,269.81
,C1437,BTLNKJBBYZNKSH-UHFFFAOYSA-M,Oc1ccc(cc1)[N+](=O)[O-],-0.74000001,1.8236,139.109
,C4004,BTNKSMIZKSHDNT-UHFFFAOYSA-N,CCCCOc1ccc(cc1)[N+]1(C)CCOC(C1)CCOOCC.[Br-],-4.108345022,0.6634,418.366
,C7317,BTNNPSLJPBRMLZ-LGMDPLHJSA-N,ClCCN(C(=O)NC1CCC(CC1)O)N=O,-1.875748848,1.6126,249.695
,C4801,BTVYFIMKUHNOBZ-ODRIEIDWSA-N,O=CN(/C(=C(\SC(=O)c1ccccc1)/CCOP(=O)(O)O)/C)Cc1cnc(nc1N)C,-3.539114283,3.8472,466.448
,C1853,BUAJNGPDPGKBGV-UHFFFAOYSA-N,CO[C@H]1/C=C/O[C@@]2(C)Oc3c(C2=O)c2C(=O)C=C(C(=O)c2c(c3C)O)NC(=O)/C(=C\C=C\[C@@H]([C@@H]([C@H]([C@H]([C@H]([C@@H]([C@@H]1C)OC(=O)C)C)O)C)O)C)/C,-8.374113388,3.9591,695.753
,C4926,BUCJHJXFXUZJHL-UHFFFAOYSA-N,C1CCC(CC1)(N1CCCCC1)c1ccccc1.Cl,-3.438328228,5.0718,279.848
,C7372,BUCORZSTKDOEKQ-SDXDJHTJSA-N,CCC1(O)CCCCC1,-1.832397148,2.0916,128.212
,C6851,BUCTXJLMXKQBJP-UHFFFAOYSA-L,C/N=C\1/CN(O)C(=c2c(=N1)ccc(c2)Cl)c1ccccc1,-2.175740787,1.2227,299.755
,C9384,BUDUFPNCIGGBNK-UHFFFAOYSA-N,C[N+](CCCCCCC[N+](C)(C)C)(C)C.[I-].[I-],0.327697074,-3.6427,470.216
,C3183,BUEGMKXWTLQONM-UHFFFAOYSA-N,C[NH+](CCCN1Cc2ccccc2Nc2c1cccc2)C.[Cl-],-4.882101177,-0.5082,317.856
,C6333,BUFWGDYEFYPADP-VQHVLOKHSA-N,CC1CCCCN1CCCOC(=O)c1ccco1,-2.516575984,2.6388,251.321
,C4609,BUHTVBNGCWQMMA-UHFFFAOYSA-N,CCCCOc1ccc(cc1OCC)/C=C/C(=O)NO,-3.662223331,3.1737,279.332
,C3077,BUJAGSGYPOAWEI-UHFFFAOYSA-N,CCCCSc1ccc(cc1)C(COC(=O)N)(COC(=O)N)CC,-5.014279239,4.8178,354.464
,C8118,BULQNWJGGGMADX-UHFFFAOYSA-N,CC(C(=O)Nc1c(C)cccc1C)N,-1.252889152,2.3624,192.258
,C4037,BULVZWIRKLYCBC-UHFFFAOYSA-N,CC(C(c1cccc2c1cccc2)(C(=O)N)CCN1CCOCC1)C,-4.083368717,3.5794,340.459
,C429,BUNFNRVLMKHKIT-UHFFFAOYSA-N,CCSCSP(=S)(OCC)OCC,-4.1100001,4.3783,260.377
,C1108,BUXCUOWXTOKEMQ-UHFFFAOYSA-N,CC(=O)Nc1ccccc1[N+](=O)[O-],-1.91,2.1494,180.161
,C9790,BUXFVGOUTJIYPK-UHFFFAOYSA-N,NCCc1ccn[nH]1.Cl.Cl,0.735031144,2.2152,184.067
,C6533,BUYJXXRXCHMFDZ-UHFFFAOYSA-N,O=C(c1ccccc1)C[NH+]1CCCCC1.[Br-],-2.385433612,-0.4887,284.192
,C2489,BUYMVQAILCEWRR-VKHMYHEASA-N,COc1cc2Sc3ccc(cc3N(c2cc1O)CCCN(C)C)Cl,-5.847829821,4.6736,364.89
,C981,BVEWMNTVZPFPQI-UHFFFAOYSA-N,COP(=O)(O[C@@H](C(Br)(Cl)Cl)Br)OC,-2.28,3.6512,380.784
,C8555,BVGLIYRKPOITBQ-ANPZCEIESA-N,OC1C(=O)NC(=O)NC1=O,-0.84265144,-1.6291,144.086
,C2902,BVHLGVCQOALMSV-JEDNCBNOSA-N,N(Cc1ccccc1)CCNCc1ccccc1.O=C(Cc1ccccc1)N[C@@H]1C(=O)N2[C@@H]1SC([C@@H]2C(=O)O)(C)C.O=C(Cc1ccccc1)N[C@@H]1C(=O)N2[C@@H]1SC([C@@H]2C(=O)O)(C)C,-5.225428724,5.727,909.124
,C9796,BVIDQAVCCRUFGU-UHFFFAOYSA-M,NCCCC[C@@H](C(=O)O)N.Cl,0.738385103,1.7299,182.649
,C8727,BVMNPUCCRIKXTQ-UHFFFAOYSA-N,CC([N+](C)(C)C)CN1c2ccccc2Sc2c1cccc2.COS(=O)(=O)[O-],-0.613362883,4.6228,410.551
,C3820,BVOSSZSHBZQJOI-LURJTMIESA-N,CCC(c1ccccc1)(C(=O)OCc1ccccc1)CN(C)C.Cl,-4.231803039,4.4414,347.879
,C1474,BVPWJMCABCPUQY-UHFFFAOYSA-N,CCC[C@H](C=C)O,-0.58999997,1.3334,100.159
,C3107,BVWDWBBIQPIAHW-UHFFFAOYSA-N,COc1cc(N)c(cc1C(=O)NC1CCN(CC1)Cc1ccccc1)Cl,-4.983230611,4.2352,373.876
,C1822,BVWRBIHNYFOGFB-UHFFFAOYSA-N,OC(=O)c1cc2ccccc2c(c1O)Cc1c(O)c(cc2c1cccc2)C(=O)O.C/C(=C\C=C\N1CCCC1)/C=[N+]1CCCC1.C/C(=C\C=C\N1CCCC1)/C=[N+]1CCCC1.O.O,-8.774697648,8.8948,863.092
,C2248,BVZSTBILYMMKCG-UHFFFAOYSA-N,C1CCC(CC1)NCC1Cc2c(C1)c1Cc2cc1CNC1CCCCC1.Cl.Cl,-6.345579953,7.036,425.478
,C6552,BWBRTQPXRCBQSJ-UHFFFAOYSA-N,CCOP(=O)(OC=C(Cl)Cl)OCC,-2.37093534,3.4606,249.029
,C8859,BWCJVGMZEQDOMY-UHFFFAOYSA-N,NCCCCCCNCCSP(=O)(O)O.O,-0.433929781,1.9479,274.318
,C6059,BWHAMWGGORIDBK-UHFFFAOYSA-N,CC1Cc2c(O1)cccc2,-2.679903273,2.01,134.175
,C8241,BWHLPLXXIDYSNW-UHFFFAOYSA-N,OS(=O)(=O)O.NNc1nnc(c2c1cccc2)NN,-1.137598247,2.1756,288.284
,C7920,BWHOZHOGCMHOBV-BQYQJAHWSA-N,OC(=O)C1CCn2c1ccc2C(=O)c1ccccc1.OCC(CO)(CO)N,-1.440527348,0.6521,376.404
,C7098,BWHXHUIEBAPNLG-UHFFFAOYSA-N,CC(=O)/C=C/c1ccccc1,-2.036192411,2.2888,146.186
,C2076,BWIOFDGLPHIMAP-BTJKTKAUSA-N,Clc1ccccc1C[NH2+]CC12CCC(CC1)(CC2)C[NH2+]Cc1ccccc1Cl.[Cl-].[Cl-],-6.878247321,-1.831,490.336
,C2227,BWLZUZVCVOPRLI-UHFFFAOYSA-N,OC(=O)/C=C\C(=O)O.CCN(CC1COC2(O1)c1ccccc1CCc1c2cccc1)CC,-6.408637542,3.4553,453.527
,C5314,BWMMRMDCODVQBX-UHFFFAOYSA-N,O=C(C(F)(F)F)N1CC=Cc2c1cccc2,-3.154984441,2.6737,227.183
,C5518,BWNVEGBYTQUWJJ-RTFAEJQKSA-N,CNC(=O)Nc1c(OCCN2CCCC2)c(OC)c2c(c1OC)cco2,-3.02815701,3.0777,363.408
,C3705,BWPIARFWQZKAIA-UHFFFAOYSA-N,COc1cc(ccc1OC)/C(=[NH+]\OCCC(=O)NCC[NH+]1CCOCC1)/c1nccc2c1cc(OC)c(c2)OC.[Cl-].[Cl-],-4.34755155,-4.4917,625.541
,C2772,BWPMHDNLIGQVLN-UHFFFAOYSA-N,CNCCCC1c2ccccc2C=Cc2c1cccc2,-5.40355605,4.6928,263.377
,C8293,BWRPEDIXOHZKFD-UHFFFAOYSA-N,ClCC(=O)Nc1ccc(cc1)[As](=O)(O)O,-1.100303971,-0.5021,293.536
,C5322,BWSSMIJUDVUASQ-UHFFFAOYSA-N,OC(=O)C(Oc1ccccc1)Oc1ccccc1,-3.149781357,2.5551,244.243
,C4300,BWTYUJLNQMANLA-UHFFFAOYSA-N,Clc1cc2NC(Cc3ccccc3)NS(=O)(=O)c2cc1S(=O)(=O)N,-3.87283088,4.5887,387.862
,C7299,BWWVAEOLVKTZFQ-ISVUSNJMSA-N,CCCC(COC(=O)N)(COC(=O)NC(=O)C)C,-1.889118223,2.252,260.287
,C3533,BWYOJTILHQWIRQ-RRABGKBLSA-N,OC(=O)[C@@H]1N2C(=O)[C@H]([C@H]2SC1(C)C)/N=C/N1CCCCCC1,-4.498353261,1.282,325.426
,C3723,BWYQRNCUKAFTOU-UHFFFAOYSA-N,COc1cc(/C=C/C(=O)CCN2CCN(CC2)c2ccccc2C)cc(c1OC)OC.Cl,-4.3193077,4.6203,460.994
,C1957,BWZPDRUAQQXBIL-UHFFFAOYSA-N,Clc1ccc(c(c1)Sc1ccc(cc1)Cl)NCCCN1CCCC1.Clc1ccc(c(c1)Sc1ccc(cc1)Cl)NCCCN1CCCC1.Cl.Cl.O,-7.449836702,13.6463,853.662
,C5786,BXAMVNHBXFXFSK-UHFFFAOYSA-N,CCCCCCCCCCNCCSS(=O)(=O)O,-2.858548848,4.7244,297.478
,C5451,BXCRLBBIZJSWNS-UHFFFAOYSA-N,CCN(C(=O)C1C2C=CC(C1C(=O)N(CC)CC)C2)CC,-3.06807152,2.1615,292.416
,C2364,BXDAOUXDMHXPDI-UHFFFAOYSA-N,CCCCCCCCCCCCCCCC(=O)OCCO,-6.089541043,5.0032,300.477
,C1844,BXDUGSCGMFHWBB-UHFFFAOYSA-N,CN1CCN(CC1)CCCN1c2ccccc2Sc2c1cc(cc2)C(F)(F)F.Cl.Cl,-8.443570465,6.4904,480.417
,C5421,BXENNERVHQAIAY-UHFFFAOYSA-N,O=C1NC(=O)C2(C(=O)N1)CCCC[Si](C2)(C)C,-3.087387172,1.8887,254.358
,C6791,BXHWNSFNMHETHT-UHFFFAOYSA-N,CCN(CCCC(=O)c1ccccc1)CC,-2.220520147,2.9913,219.323
,C2128,BXKDSDJJOVIHMX-UHFFFAOYSA-N,CS(=O)(=O)O.CS(=O)(=O)O.Nc1nccnc1N1CCN(CC1)CCC(c1ccccc1)(c1ccccc1)c1ccccc1,-6.72821982,6.3592,641.801
,C9750,BXNANOICGRISHX-UHFFFAOYSA-N,CC[N+](c1cccc(c1)O)(C)C.[Cl-],0.695307021,-1.017,201.693
,C189,BXNJHAXVSOCGBA-UHFFFAOYSA-N,CCOP(=S)(Oc1ccc2c(c1)oc(=O)c(c2C)Cl)OCC,-5.3800001,5.0817,362.766
,C3171,BXRNXXXXHLBUKK-UHFFFAOYSA-N,COc1ccc2c(c1)[nH]c1c2ccnc1C,-4.899365682,3.0331,212.247
,C1415,BXRQFVDIGIQZHQ-UHFFFAOYSA-M,O=C1NCC(=O)NC1,-0.82999998,-1.11,114.103
,C4126,BXTHDFJCJQJHKD-KMVLDZISSA-N,Clc1ccccc1C[N+]12CCCC(CC1)CC2.[Cl-],-4.022161404,0.8234,286.24