Name,Compound ID,InChIKey,SMILES,logS,logP,MW
,C7100,HVAKUYCEWDPRCA-UHFFFAOYSA-N,CN1C2CCC(C2)C(C1C)(C)C,-2.035964862,2.4531,167.291
,C248,HVATXFMFGHVAHO-UHFFFAOYSA-N,Nc1ccc(cc1Cl)c1ccc(c(c1)Cl)N,-4.9200001,4.9872,253.127
,C3381,HVCOBJNICQPDBP-UHFFFAOYSA-N,COc1ccc(cc1)C=CC(=O)c1ccc(cc1OC)OC,-4.650387464,3.6085,298.333
,C6206,HVDJTCQTYOACHS-UHFFFAOYSA-N,CCCCNc1ccccc1C(=O)N,-2.593520126,2.7708,192.258
,C6714,HVFCLQQFFYUROM-XJQFHKDFSA-N,CCCCCCCC(OC1OC(C)C(C(C1O)OC1OC(C)C(C(C1O)O)O)O)CC(=O)OC(CC(=O)O)CCCCCCC.O,-2.266599376,2.4842,668.81
,C4771,HVFQJWGYVXKLTE-UHFFFAOYSA-N,NCC1CCC(CC1)CNCc1ccccc1Cl.Cl.Cl,-3.562649672,5.8899,339.731
,C2611,HVHVTGIAAGQNOB-UHFFFAOYSA-N,COc1ccc(cc1[N+](=O)[O-])C(=O)CN1CC[C@@]23[C@H]([C@H]1Cc1c3cc(cc1)O)CCCC2.Cl,-5.641406166,5.5134,472.961
,C3716,HVILUKPDZDFAAL-UHFFFAOYSA-N,OC(=O)c1cc(cc(c1)C(F)(F)F)C(F)(F)F,-4.329034587,3.4224,258.117
,C2280,HVLUYXIJZLDNIS-UHFFFAOYSA-N,NC(=O)Nc1ccc(cc1)[As](Sc1ccccc1C(=O)O)Sc1ccccc1C(=O)O,-6.267864428,4.6267,516.422
,C5398,HVPYTXIRTRZJEU-UHFFFAOYSA-M,OCC(COc1cc(C)c(c(c1)C)Cl)O,-3.102953616,1.6888,230.688
,C8951,HVQFBBXWCVYDNC-UHFFFAOYSA-N,NCCc1cccs1,-0.301047067,1.9496,127.207
,C8646,HVQGUIQVKSROJF-UHFFFAOYSA-N,CC[N+](CCC[n+]1ccc2c(c1C)[nH]c1c2cccc1)(CC)C.[Br-].[Br-],-0.74335038,-2.1985,471.272
,C3323,HVTICUPFWKNHNG-UHFFFAOYSA-N,CC(N(C(C)C)CCCN1C(=O)CCCc2c1cccc2)C,-4.701074343,3.9298,302.454
,C8203,HVVINGXJHBOTJQ-UHFFFAOYSA-N,COc1ccccc1NCC(=O)N,-1.182053306,1.3657,180.204
,C1199,HVXXOIGTXJOVON-UHFFFAOYSA-N,CCI,-1.6,1.4413,155.966
,C43,HVZBLYFIPJDENZ-UHFFFAOYSA-N,Cc1ccc2c(c1)ccc1c2cc2cccc3c2c1CC3,-7.9200001,5.5532,268.352
,C1105,HWCWLOMWKWGDCW-UHFFFAOYSA-N,COc1ccc(c(c1OC)C(=O)O)C=O,-1.92,1.2145,210.183
,C2249,HWDPSQSTOIACSI-AQTBWJFISA-N,CC1CCCCN1CCCOC(=O)c1ccc(cc1)C1CCCCC1,-6.342816038,5.0935,343.503
,C5072,HWGAOXKGTHUMFZ-UHFFFAOYSA-N,C1CCN2C(C1)CCC(C2)c1ccccc1.Cl,-3.332866414,4.1584,251.795
,C2892,HWGBHCRJGXAGEU-UHFFFAOYSA-N,CCCCCN(CC(=O)N/N=C\c1ccc(o1)[N+](=O)[O-])CCCCC,-5.237448864,4.2344,352.429
,C3797,HWHHQAIKYRNUCS-UHFFFAOYSA-N,N1CCNCC1.CCCCC1C(=O)N(N(C1=O)c1ccccc1)c1ccccc1,-4.253645254,3.7546,394.51
,C912,HWHLPVGTWGOCJO-UHFFFAOYSA-N,Cc1cc(=O)[nH]c(=S)[nH]1,-2.4300001,0.7409,142.179
,C5541,HWJHZLJIIWOTGZ-UHFFFAOYSA-N,Clc1ccc2c(c1)CN(OC2)CCc1cc[nH+]cc1.[Cl-],-3.015926693,-0.4141,311.206
,C1674,HWLKAQICMUZYAG-UHFFFAOYSA-N,OC(c1ccccc1)(C1CCCCC1)CCN1CCCCC1	,-5.20 ,4.2684,301.466
,C9927,HWNQHNPAOQSMFI-LXCLTORNSA-N,CC(=O)NCO,1.050151533,-0.5368,89.0932
,C2156,HWNQQXXZOQECES-UHFFFAOYSA-N,C1CCC(CC1)NCC1CCC(CC1)CNCC1CCCCC1.Cl.Cl,-6.623184165,7.2708,393.478
,C1766,HWQQCBDKNXSNIC-KHPPLWFESA-N,CCCCCCCCOc1ccc(c2c1cccc2)C(=N)[NH+](CCCC)CCCC.[Cl-],-9.974630214,3.4933,447.096
,C9505,HWRUOPCDGPXWRR-UHFFFAOYSA-N,CCC(SS(=O)(=O)O)(N=C(N)N)C,0.419380627,2.4034,227.305
,C5645,HWURPQUPKQFGJI-UHFFFAOYSA-N,N#C/N=[N+](/c1ccc(cc1)Cl)\[O-],-2.947735644,2.93828,181.579
,C7786,HWWYDZCSSYKIAD-UHFFFAOYSA-N,Clc1cnc(nc1)NS(=O)(=O)c1cccc(c1)N,-1.538487697,3.248,284.722
,C3933,HWYDUXWJTPHYRD-UHFFFAOYSA-N,NC(=N)c1ccc(cc1)OCCCCCOc1ccc(cc1)C(=N)N.Cl.Cl,-4.150927725,6.0869,413.341
,C1594,HXACOUQIXZGNBF-UHFFFAOYSA-N,Cc1cncc(c1)C,0.38,1.6984,107.153
,C1872,HXEUYTYCYGECQO-UHFFFAOYSA-L,Clc1ccc(cc1)c1nc2c(o1)ccc(c2)C(c1n[nH]nn1)C,-8.14367658,3.8131,325.752
,C8784,HXGDTGSAIMULJN-UHFFFAOYSA-N,OCc1cnc(c(c1C(=O)O)O)C,-0.53847992,0.2861,183.161
,C6596,HXGHMCLCSPQMOR-UHFFFAOYSA-N,Cc1[n+](CCC[N+]2(C)CCCC2)ccc2c1N=C1C2C=CC=C1.[Br-].[Br-],-2.347135718,-3.3889,469.256
,C459,HXHNKQJNCXGUEB-UHFFFAOYSA-N,c1cc2cccc3c2c(c1)C=C3,-3.96,3.3236,152.192
,C5911,HXHWSAZORRCQMX-UHFFFAOYSA-N,OC(=O)c1cccc(c1C)Cl,-2.772566173,2.3466,170.593
,C9555,HXJUTPCZVOIRIF-UHFFFAOYSA-N,O=C1C=C(NCCNCc2ccncc2)C(=O)c2c1nccc2,0.510968723,1.9007,308.335
,C3224,HXLCWJFBAHHGQB-UHFFFAOYSA-N,CCCSc1ccc2c(c1)[nH]c(n2)NC(=O)OC,-4.843319194,3.3163,265.331
,C9900,HXUAXLUDTCGASZ-UHFFFAOYSA-M,O=S1(=O)CCCC1,0.920218395,1.2758,120.17
,C5553,HXVLBOCPXAUHQG-UHFFFAOYSA-N,CCC(=O)N1Cc2cc(Cl)ccc2CO1,-3.013033563,2.4617,225.671
,C9088,HXVNBWAKAOHACI-UHFFFAOYSA-N,CCCCCCC1(CC)C(=O)NC(=NC1=O)[O-].[Na+],-0.051417533,1.5605,262.281
,C3765,HXVWSPYWLBVECZ-UHFFFAOYSA-N,CCN(CCCC(Nc1ccc(c2c1NCCC2)OC)C)CC.Cl,-4.274928401,4.9887,355.946
,C1303,HXYYSKMOHXXOAW-UHFFFAOYSA-N,CC(C(=O)C(C)C)C,-1.3,1.8675,114.185
,C6525,HXZJRRMZYWUPDU-DMAAICPESA-N,CCOC(=O)C(C(C(F)(F)F)(C(F)(F)F)O)C(=O)OCC,-2.392898056,1.5845,326.19
,C6330,HYBBIBNJHNGZAN-UHFFFAOYSA-N,O=C1CC(CN1c1ccccc1)N1CCCCC1,-2.518759295,2.2807,244.332
,C2882,HYDZMARBTYAIMU-UHFFFAOYSA-N,O=C1C[C@@H]2C([C@]1(CC2)CS(=O)(=O)O)(C)C.COc1ccc2c(c1)[C@]13CCCC[C@H]3[C@@H](C2)N(CC1)CCc1ccco1,-5.253034588,6.8776,583.778
,C1549,HYFHYPWGAURHIV-JFIAXGOJSA-N,O=Cc1ccco1,-0.1,1.0921,96.0841
,C7902,HYFLWBNQFMXCPA-UHFFFAOYSA-N,S=C1NC(=O)C(N1)C,-1.450793264,0.0368,130.168
,C3709,HYIMSNHJOBLJNT-UHFFFAOYSA-N,COC(=O)C[C@@](C(=O)O[C@@H]1C(=C[C@]23[C@@H]1c1cc4OCOc4cc1CCN3CCC2)OC)(CCCC(O)(C)C)O,-4.33895746,2.5186,545.621
,C656,HYJSGOXICXYZGS-UHFFFAOYSA-N,CCc1ccccc1C,-3.21,2.5574,120.192
,C273,HYKQYVSNFPWGKQ-UHFFFAOYSA-N,COC(=O)C1=C(C)NC(=C([C@@H]1c1ccccc1[N+](=O)[O-])C(=O)OC)C,-4.7600002,3.0276,346.335
,C846,HYLCRKVCRPLFRE-UHFFFAOYSA-N,OC(=O)Cn1c(=O)sc2c1c(Cl)ccc2,-2.6099999,1.801,243.667
,C8968,HYOCUNMMJQCBHU-UHFFFAOYSA-N,NC(=S)c1ccccn1,-0.260973044,1.4161,138.19
,C4920,HYPJZSYXUWYJDG-UHFFFAOYSA-N,O=C(c1ccccc1O)NC1CCCCC1,-3.440093877,2.8456,219.28
,C5554,HYPPXZBJBPSRLK-UHFFFAOYSA-N,CC(N(C)C)CC(c1ccccc1)(c1ccccc1)O.Cl,-3.011286555,4.0647,305.842
,C4408,HYPRUQJUBWRVEM-UHFFFAOYSA-N,OC(=O)Cc1ccccc1Nc1c(Cl)ccc(c1Cl)O,-3.800630825,4.1427,312.148
,C5945,HYQMHBKDCGCUGT-UHFFFAOYSA-N,CCOC(=O)C1(CCN(CC1)CCC(c1ccccc1)(c1ccccc1)C#N)c1ccccc1,-2.752622634,5.42118,452.587
,C950,HYSHKUTUFPKEQE-UHFFFAOYSA-N,O=C1NC(=O)NC(=O)C21CCCC2,-2.3499999,0.5704,182.177
,C7300,HYSSJKYEXPISGA-UHFFFAOYSA-N,NCC(C(=O)c1ccccc1)c1ccccc1.Cl,-1.888968314,4.1141,261.747
,C7663,HYTGGNIMZXFORS-MGYKWWNKSA-N,COc1cc(C)ccc1CC(N)C.Cl,-1.617054681,3.3956,215.72
,C2421,HYWSJWFBIDJNRS-UHFFFAOYSA-M,ClCCN(c1ccc(cc1)OC(=O)c1ccc(cc1)OC)CCCl,-5.978436508,4.1984,368.254
,C2673,HYWYRSMBCFDLJT-UHFFFAOYSA-N,CC[C@H](C(=O)O[C@H]1[C@H](O)[C@H]2[C@H]([C@H]3[C@]1(O)[C@@H]1[C@H](OC(=O)C)[C@H](OC(=O)C)[C@H]4[C@]5([C@]1(C3)O[C@]4(O)[C@H](CC5)OC(=O)[C@](CC)(O)C)C)CN1[C@H]([C@@]2(C)O)CC[C@@H](C1)C)C,-5.538064223,1.5451,793.937
,C9317,HYYBABOKPJLUIN-UHFFFAOYSA-N,Cc1n(CCC[N+](C)(C)C)ccc2c1nc1c2cccc1.[Br-].Br,0.285847566,1.5563,443.219
,C4079,HYYCSBXRMNMNBN-UHFFFAOYSA-N,[O-][N+](=O)c1ccc(c(c1)Oc1ccccc1)NS(=O)(=O)C,-4.058909753,4.4356,308.31
,C499,HYYDHUILGLWOOP-UHFFFAOYSA-N,OC(=O)c1ccccc1Nc1cccc(c1C)C,-3.78,3.8182,241.285
,C3772,HZKFHDXTSAYOSN-UHFFFAOYSA-N,Cc1ccc(cc1)C(=O)OCCCN1CCCCC1C,-4.272633985,3.3542,275.386
,C9625,HZOTZTANVBDFOF-PBCQUBLHSA-N,OC(c1ccccc1)CNc1ccccn1.Cl,0.600800628,3.1021,250.724
,C4994,HZPVYVIKZIPUDA-UHFFFAOYSA-N,OC1=C(c2ccccc2)C(=O)C(=C(C1=O)c1ccccc1)O,-3.390267011,3.0768,292.285
,C7873,HZTMGWSBSDLALI-UHFFFAOYSA-N,OC(=O)c1ccccc1O.CNC(=O)Oc1ccc2c(c1)[C@]1(C)CCN([C@@H]1N2C)C,-1.476569119,3.2581,413.467
,C3438,HZTUFMXXIKGMQU-UHFFFAOYSA-N,O=C(Nc1c(C)cccc1Cl)OC1CCN(C1)C(C)(C)C,-4.594335253,4.0806,310.819
,C9177,HZWYCZUXPQNXPD-UHFFFAOYSA-N,CCCCN(C(=O)N1CCOCC1)CCN(C(=O)N1CCOCC1)CCCC,0.09848937,1.9708,398.54
,C6442,HZZVJAQRINQKSD-PBFISZAISA-N,COc1ccc(cc1)SCC1CN=C(O1)N,-2.451305562,1.6367,238.306
,C4510,IABBAGAOMDWOCW-UHFFFAOYSA-N,COc1cc(CCNCC2CCc3c(N2)cccc3)ccc1OC.Cl.Cl,-3.719975546,5.3957,399.355
,C9760,IABJZMVJXLVXPQ-UHFFFAOYSA-N,OC(=O)[C@@H]1N2[C@H](O/C/1=C\CO)CC2=O,0.700793521,-1.1577,199.161
,C8173,IABNRFKGIGJEFF-UHFFFAOYSA-N,OC(=O)C(CC(=O)O)(CC(=O)O)O.CCN(CCOC(=O)c1cccnc1)CC,-1.210891105,0.3317,414.407
,C7427,IAHJVNSZPMIREM-UHFFFAOYSA-N,CNC(CC12CC3CC(C1)CC(C2)(C3)O)C.Cl,-1.799772003,3.5086,259.815
,C2579,IAHYAEQCVLEZTB-UHFFFAOYSA-N,CCC1(CC)OC(c2c1cccc2)(CCCN(C)C)c1ccccc1.Cl,-5.692017365,6.1195,373.959
,C311,IAIWVQXQOWNYOU-FPYGCLRLSA-N,CCCCCCCOC(=O)c1ccc(cc1)N,-4.5999999,3.9772,235.322
,C4807,IAJHEMNFBQPVCL-UHFFFAOYSA-N,Brc1cccc(n1)OCCCCCN1CSCC1.Cl,-3.536145296,4.1394,367.733
,C5603,IAJHGYYJSAKQFW-UHFFFAOYSA-N,NC(=O)N/N=C/c1ccc(o1)[N+](=O)[O-],-2.97474848,1.8044,198.136
,C4715,IAKHMKGGTNLKSZ-INIZCTEOSA-N,FCCCCCCCC#C,-3.595444311,2.9297,142.214
,C3335,IAKOZHOLGAGEJT-UHFFFAOYSA-N,O=C(C(=C)c1c(Cl)cccc1Cl)OC1CC2CCC(C1)[NH+]2C.[Cl-],-4.692336491,1.3311,376.705
,C8438,IANLIXWJIDFXSI-UHFFFAOYSA-N,COc1c(OC)cc2c(c1OC)c1ccc(c(=O)cc1[C@H](CC2)NC(=O)C)OC,-0.94824229,3.2625,399.437
,C89,IANQTJSKSUMEQM-UHFFFAOYSA-N,COc1ccc(cc1)C(C(Cl)(Cl)Cl)c1ccc(cc1)OC,-6.8899999,5.2059,345.648
,C7949,IAOBSBQMRZRBPT-UHFFFAOYSA-N,O=C(c1ccc(cc1)N)Nn1ncnc1,-1.419754896,0.8984,203.201
,C6762,IAPGOFICYOCHPX-UHFFFAOYSA-N,c1ccc2c(c1)occ2,-2.241148892,2.4328,118.133
,C8847,IAPHXJRHXBQDQJ-WKMWQDDRSA-N,COc1ccc(cc1C(C[NH+](C)C)O)OC.[Cl-],-0.446604205,-3.1143,261.745
,C5709,IASAIPNBZZZTDZ-WXIWBVQFSA-N,Oc1ccc2c(c1)c(N)c1c(n2)cccc1,-2.906066557,3.257,210.231
,C9067,IATJMLPKUHHHKY-HYMTUZTBSA-N,O=C1OCC2=CCN3[C@H]2[C@@H](CC3)OC(=O)[C@@]2(C[C@H]([C@@]1(C)O)C)O[C@H]2C,-0.086408021,0.3419,351.394
,C7264,IATOMHNNMDOQEO-UHFFFAOYSA-N,[O-][N+](=O)c1ccc(o1)/C=N/NC(=O)C[NH2+]CCC.[O-]C(=O)C,-1.917558021,-0.7184,314.295
,C2281,IATZQORMMQOVAJ-UHFFFAOYSA-N,O[C@H]([C@H](C(=O)O)O)C(=O)O.CCC(CCN1CC[C@@]23[C@H]([C@H]1Cc1c3cc(cc1)OC)CCCC2)C,-6.263499165,3.0051,491.617
,C4379,IAYMSKGZCDTHKZ-UHFFFAOYSA-N,CCCC(c1ccccc1)C(=O)OCCN(CC)CC.Cl,-3.821883132,4.2573,313.863
,C6767,IAZDPXIOMUYVGZ-UHFFFAOYSA-N,CCOC(=O)N(P(=O)(N1CC1)N1CC1)OC(=O)C,-2.238699892,0.5381,277.214
,C9825,IBABVQIIFVJKAG-UHFFFAOYSA-L,OCCN1CCOCC1.Cl,0.775640483,0.0508,167.634
,C9937,IBBLRJGOOANPTQ-JKVLGAQCSA-N,CS(=O)C,1.107187745,0.8604,78.1334
,C9387,IBHICZHJJGSIKX-UHFFFAOYSA-N,Brc1c[n+](CCC[N+](C)(C)C)cc2c1cccc2.[Br-].[Br-],0.328772536,-3.0059,469.053
,C4262,IBHWREHFNDMRPR-UHFFFAOYSA-N,CCOC(=O)[C@@H](N[C@H](C(=O)N1Cc2ccccc2C[C@H]1C(=O)O)C)CCc1ccccc1.Cl,-3.91250101,3.6979,474.977
,C5055,IBKQQKPQRYUGBJ-UHFFFAOYSA-N,COC(=O)c1c(C)ccc(c1OCC(=O)OCCN(C)C)C(C)C,-3.343474229,2.3886,337.411
,C8421,IBLIMURONGSVLV-UHFFFAOYSA-N,Oc1cc(O)c(c(c1)O)C(=O)O,-0.958913768,0.5016,170.12
,C7876,IBLNKMRFIPWSOY-FNORWQNLSA-N,CC(=O)c1cc(O)c(c(c1)O)O,-1.471114024,1.006,168.147
,C3825,IBMCQJYLPXUOKM-UHFFFAOYSA-N,CNC(CC12CC3CC(C1)CC(C2)(C3)Br)C.Cl,-4.230065551,4.9112,322.712
,C4793,IBQXSHMLSZXUHF-UHFFFAOYSA-N,OC(C(C)(C)C)/C=C/c1ccc2c(c1)OCO2,-3.546288791,2.8355,234.291
,C7939,IBSQPLPBRSHTTG-UHFFFAOYSA-N,CN1C(C)(C)CC=CC1(C)C,-1.426542431,2.3732,153.265
,C8217,IBUZZCYYOXZDPV-UHFFFAOYSA-N,CCCC[NH2+]CC(c1ccccc1)O.[Cl-],-1.162594653,-1.9125,229.746
,C571,IBVBFSLPVBAYSV-SRJUEMFDSA-N,Cc1ccccc1Cl,-3.52,2.6484,126.583
,C5679,IBVNNVNKILNDQJ-XNIMBYMISA-N,OC(CN1CCN(CC1)c1ccc(c(c1)C)C)COc1cc(O)ccc1C(=O)C.Cl.Cl,-2.925995284,4.3804,471.417
,C2126,IBWJXVVIEGGYGU-UHFFFAOYSA-N,C[NH+](CC/C=C\1/c2ccccc2CCc2c1cc(Cl)cc2)C.[Cl-],-6.730392184,0.4089,348.309
,C6361,IBXNCJKFFQIKKY-UHFFFAOYSA-N,ClCCN([C@H]1C(OC(=O)C)O[C@@H]([C@H]([C@@H]1OC(=O)C)OC(=O)C)COC(=O)C)CCCl,-2.49813773,0.8491,472.314
,C6334,IBYHHJPAARCAIE-UHFFFAOYSA-N,Clc1ccc(cc1)N1C(=S)SC(C1=O)C,-2.515831385,3.1582,257.76
,C1182,IBZJGOGLCABLDJ-UHFFFAOYSA-N,CCCC#C,-1.64,1.4197,68.117
,C1293,ICALPHVLOAKCMX-UHFFFAOYSA-N,ClCCBr,-1.3200001,1.6201,143.41
,C8805,ICFJFFQQTFMIBG-UHFFFAOYSA-N,O=Nc1ccc(c(c1O)N=O)O,-0.507917878,1.8936,168.107
,C4502,ICFXSIAFGXAWNF-UHFFFAOYSA-N,OC(CN1CCN(CC1)c1ccc(c(c1)C)C)COc1cccc(c1)C(=O)C,-3.727116825,3.0708,382.496
,C9124,ICFXZZFWRWNZMA-UHFFFAOYSA-N,N/C(=N\CCc1ccccc1)/N=C(N)N,0.010524369,1.9181,205.26
,C4864,ICGLPKIVTVWCFT-UHFFFAOYSA-N,OCCNC(=O)c1cc(cc(c1O)C(C)C)C(C)C,-3.492874971,2.752,265.348
,C8191,ICGQGUKMXAOFOU-JXMROGBWSA-N,CCN(C(C(=O)c1ccccc1)C)CC.Cl,-1.19869122,3.4016,241.757
,C8350,ICKCVNJKNQLYJF-UHFFFAOYSA-N,NNS(=O)(=O)c1ccc(cc1)C,-1.032001208,2.319,186.231
,C6272,ICKFFNBDFNZJSX-UHFFFAOYSA-N,CN1C(=O)C2CCC(C1=O)N2C(=O)/C=C/c1ccccc1,-2.553432644,0.9338,284.31
,C8148,ICKMASVVMCGZLR-UHFFFAOYSA-N,CCCCCC(NCCSS(=O)(=O)O)C,-1.231114347,3.5525,255.398
,C6160,ICMAFTSLXCXHRK-UHFFFAOYSA-N,CN(CCN(c1ccccn1)Cc1ccc(cc1)Cl)C,-2.61775599,3.3032,289.803
,C1907,ICMGLRUYEQNHPF-UHFFFAOYSA-N,CC(=O)Oc1c(I)cc(cc1C(=O)Nc1ccc(cc1)Cl)I,-7.824530476,4.7998,541.507
,C1154,ICMWWNHDUZJFDW-DHODBPELSA-N,CCCCC(=O)OCC,-1.75,1.7397,130.185
,C4993,ICOAEPDGFWLUTI-UHFFFAOYSA-N,COc1ccccc1N1CCN(CC1)CCCNc1cc(=O)n(c(=O)n1C)C,-3.391249057,0.7927,387.476
,C3250,ICQHDCCMMOFHOP-UHFFFAOYSA-N,O/C=C\1/C[C@@]2(C)[C@H](CC1=O)CC[C@@H]1[C@@H]2CC[C@]2([C@H]1CC[C@]2(C)O)C,-4.804599737,4.401,332.477
,C11,ICQVNPHZLORXIG-UHFFFAOYSA-N,Clc1cc(Cl)cc(c1c1c(Cl)cc(cc1Cl)Cl)Cl,-8.71,7.274,360.878
,C6724,ICSZIVRHPGGLMP-UHFFFAOYSA-N,COc1ccc(cc1CC(N(C)C)C)OC.Cl,-2.102841804,2.9984,259.772
,C1956,ICTGRDPWQUONIY-UHFFFAOYSA-N,Clc1ccc(cc1)C1CCc2c(N(C1=O)CCCN(C(C)C)C(C)C)cccc2,-7.45159931,5.9769,412.995
,C3166,ICTXHFFSOAJUMG-SLHNCBLASA-N,CCc1cc(ccc1[N+](=O)[O-])OP(=S)(OC)OC,-4.908337425,4.2271,291.261
,C1777,ICVPTJCCKTXCDT-UHFFFAOYSA-L,OC(c1cccc(n1)C(Cc1ccccc1)(Cc1ccccc1)O)(Cc1ccccc1)Cc1ccccc1,-9.630483498,6.4276,499.642
,C3512,ICXBKMXYDWPSIY-UHFFFAOYSA-N,C#C[C@]1(O)CC[C@@H]2[C@]1(C)CC[C@H]1[C@H]2CCC2=C1CCC(=O)C2,-4.52291657,3.6366,298.419
,C9616,ICXXXLGATNSZAV-UHFFFAOYSA-N,[O-]P(=O)(OCC[N+](C)(C)C)[O-].[Cl-].[Ca+2],0.588946255,-2.3177,257.666
,C9620,ICYRROBWADKOAL-UHFFFAOYSA-N,O=C(C(Cc1cccc(c1)O)N)OC(C(O)C)O,0.593000222,0.2047,255.267
,C9911,IDBPHNDTYPBSNI-UHFFFAOYSA-N,CCCCN.Cl,0.960201334,2.2475,109.598
,C5204,IDCBOTIENDVCBQ-UHFFFAOYSA-N,NC(=O)C(c1cccc2c1cccc2)(CCN1CCOCC1)CCN1CCOCC1,-3.236020473,2.5836,411.537
,C4041,IDCHQQSVJAAUQQ-UHFFFAOYSA-N,COCC1(CCN(CC1)CCn1nnn(c1=O)CC)N(c1ccccc1)C(=O)CC,-4.080942736,1.3218,416.517
,C9573,IDCPFAYURAQKDZ-UHFFFAOYSA-N,CCOP(=O)(OP(=O)(OCC)OCC)OCC,0.537319054,3.3652,290.188
,C7839,IDDIJAWJANBQLJ-UHFFFAOYSA-N,CCN(CCc1onc(n1)c1ccccc1)CC,-1.501957543,2.6209,245.32
,C1280,IDELNEDBPWKHGK-UHFFFAOYSA-N,[O-][N+](=O)NC(=N)N,-1.37,0.3753,104.068
,C6377,IDHNGYVCZUQHFV-UHFFFAOYSA-N,CS(=O)(=O)O.NCCCCCN(C(=O)CCC(=O)NCCCCCN(C(=O)CCC(=O)NCCCCCN(C(=O)C)O)O)O,-2.49314608,2.989,656.79
,C4651,IDIICHZCEIGXGB-UHFFFAOYSA-N,CCC(C1(CC)C(=O)NC(=S)NC1=O)C,-3.636879168,1.6174,228.311
,C7838,IDKAXRLETRCXKS-UHFFFAOYSA-N,ClCCCNC(Cc1ccccc1)C.Cl,-1.503248554,4.029,248.192
,C8487,IDKUACLJPBLSHH-UHFFFAOYSA-N,SC(=S)N1CCNCC1,-0.908337843,0.373,162.276
,C3026,IDLSITKDRVDKRV-XHXSRVRCSA-N,OC(=O)Cc1ccccc1Oc1ccc(cc1Cl)Cl,-5.071375134,4.4128,297.133
,C5606,IDOWTHOLJBTAFI-UHFFFAOYSA-N,C=CCn1c(=O)n(c2ccccc2)c(c(c1=O)N(C)C)C,-2.972214071,1.5596,285.341
,C7887,IDPUKCWIGUEADI-UHFFFAOYSA-N,Oc1ccc(cc1)CCN[C@H]([C@@H](c1ccc(cc1)O)O)C.Cl,-1.464976653,3.5449,323.814
,C270,IDQSAFVVLDCEBJ-UHFFFAOYSA-N,COC(=O)Nc1cccc(c1)OC(=O)Nc1cccc(c1)C,-4.8000002,3.9302,300.309
,C6550,IDRYSCOQVVUBIJ-PPGFLMPOSA-N,ClCCN(c1c[nH]c(=O)[nH]c1=O)CCCl,-2.373807027,0.3472,252.098
,C7814,IDUMOVRJNBNOTR-BIZLIJPVSA-N,CCC(NC)(CC)CC.Cl,-1.518631896,3.3675,165.704
,C2367,IDVSELVVGYIOEX-UHFFFAOYSA-M,CC[C@H]1OC(=O)[C@H](C)[C@@H](O[C@H]2C[C@@](C)(OC)[C@H]([C@@H](O2)C)O)[C@H](C)[C@@H](O[C@@H]2O[C@H](C)C[C@@H]([C@H]2O)N(C)C)[C@](C[C@H](C(=O)[C@@H]([C@H]([C@H]1C)O)C)C)(C)O,-6.087152993,2.6707,717.927
,C3018,IDWDXHQLOMJDRU-UHFFFAOYSA-N,O=C(c1ccc(s1)[N+](=O)[O-])N/N=C/C=C/c1ccc(o1)[N+](=O)[O-],-5.08327902,4.0238,336.28
,C9831,IDWVKNARDDZONS-UHFFFAOYSA-N,C=C[N+](C)(C)C.[Br-],0.779729736,-2.1599,166.059
,C1743,IDYGRQQUWYMRTA-AATRIKPKSA-N,CCCCCCCCCCCCCCCCCC(=O)OCC(C(c1ccc(cc1)[N+](=O)[O-])O)NC(=O)C(Cl)Cl,-11.28911114,8.6355,589.591
,C2519,IDYZIJYBMGIQMJ-UHFFFAOYSA-N,CN(CCn1c2ccc(cc2[nH]c2c(c1=O)cccc2)Cl)C,-5.798450309,3.26,315.797
,C6488,IDZYLIZKJFAXAS-UHFFFAOYSA-N,C/C=C/CSC(C(=O)NC)(C)C,-2.420670472,2.2112,187.302
,C8412,IEADCIRKURNNHE-UHFFFAOYSA-N,CCn1cc(C(=O)O)c(=O)c2c1nc(N1CCNCC1)c(c2)F,-0.970168775,1.0571,320.319
,C108,IEALZUDQNHAFKI-UHFFFAOYSA-N,CCCCCCCC(=O)OCN1C(=O)NC(C1=O)(c1ccccc1)c1ccccc1,-6.52,4.6099,408.49
,C6316,IECCHUISCGCKKS-UHFFFAOYSA-N,C[NH+](CCc1csc2c1cccc2)C.[Cl-],-2.52307696,-1.4077,241.78
,C4784,IECPWNUMDGFDKC-MZJAQBGESA-N,CN1CCc2c(C1)cccc2NC(=O)C1CCCCC1,-3.553809692,3.2042,272.385
,C4151,IEDVJHCEMCRBQM-UHFFFAOYSA-N,OC(c1ccccc1)(c1ccccc1)CCN1CCCCC1.Cl,-4.002472376,4.5384,331.88
,C1859,IEISBKIVLDXSMZ-UHFFFAOYSA-N,CC(=O)O[C@H]1C[C@]2([C@H](/C/1=C(/C(=O)O)\CCC=C(C)C)C[C@H]([C@@H]1[C@]2(C)CC[C@@H]2[C@]1(C)CC[C@H]([C@H]2C)O)O)C,-8.302983458,5.6661,516.709
,C758,IEMOYEITSSERMC-UHFFFAOYSA-N,COc1cc(Cc2cnc(nc2N)N)cc(c1OC)OC,-2.8599999,2.42,290.318
,C2419,IENZQIKPVFGBNW-UHFFFAOYSA-N,CN1CCC(C1)CN1c2ccccc2Sc2c1cccc2.Cl,-5.980721518,5.0459,332.891
,C2072,IEPBPSSCIZTJIF-UHFFFAOYSA-N,O=C(N1c2ccccc2Sc2c1nccc2)OCCCN1CCCCC1.Cl,-6.906032391,5.5018,405.941
,C4042,IEPPCSKVUNZEMU-UHFFFAOYSA-N,COc1cc2nc(nc(c2cc1OC)N)N1CCN(CC1)C(=O)c1ccco1,-4.0806881,2.3687,383.401
,C3147,IESVGUSNDICIGM-UHFFFAOYSA-N,O=C(OCC(Cl)(Cl)Cl)OCC(Cl)(Cl)Cl,-4.921645025,3.88,324.801
,C3112,IESYQTXPSQWIGA-UHFFFAOYSA-N,CC(N(C(=O)c1ccco1)c1ccccc1)CN1CCC(CC1)(O)c1ccccc1.Cl,-4.967713455,5.0384,440.962
,C2914,IEXIPYCHASVPFD-UHFFFAOYSA-L,OC(=O)C(c1ccc2c(c1)nc(o2)c1ccc(c(c1)Cl)Cl)C,-5.206410084,4.9897,336.169
,C5846,IEZDOKQWPWZVQF-UHFFFAOYSA-N,CS(=O)(=O)N1CC=Cc2c1cccc2,-2.816901764,2.6252,209.265
,C9525,IEZTZCXBBTUQMD-UHFFFAOYSA-N,Oc1ccc2c(c1)c(cc(c2)S(=O)(=O)[O-])S(=O)(=O)[O-].[Na+].[Na+],0.458107615,2.5152,348.26
,C9783,IFFLKGMDBKQMAH-UHFFFAOYSA-N,O=C1CCC2N1C(=O)CC2,0.73087011,0.2357,139.152
,C7885,IFICQWLWXOGTPQ-UHFFFAOYSA-N,CCC1C(=O)NC(=O)N(C1=O)c1ccccc1,-1.46611465,1.6894,232.235
,C9391,IFKBZHDNEPYYJT-UHFFFAOYSA-L,Nc1ccnc(c1)N,0.333115748,1.4084,109.129
,C9199,IFKLAQQSCNILHL-QHAWAJNXSA-N,Cc1cccc(c1)OCC(=[NH2+])N.[Cl-],0.135276769,-2.8056,200.665
,C9480,IFKQSCSWOTVYMY-UHFFFAOYSA-N,CC[N+](CCOCC[N+]1(CC)CCCC1)(C)C.[Br-].[Br-],0.393370395,-4.3034,404.225
,C4370,IFLREYGFSNHWGE-UHFFFAOYSA-N,Oc1ccc2c(c1)[C@]13CCCC[C@]3([C@@H](C2)N(CC1)CC1CCC1)O,-3.829248062,3.3035,327.46
,C6499,IFOAVKYGEODTRQ-UHFFFAOYSA-N,COc1cc(CC/N=C(/CSS(=O)(=O)O)\N)ccc1OC,-2.413683052,2.9206,334.412
,C15,IFPHDUVGLXEIOQ-UHFFFAOYSA-N,c1ccc2c(c1)cc1c(c2)cc2c(c1)cccc2,-8.6000004,5.1462,228.288
,C7055,IFQSXNOEEPCSLW-DKWTVANSSA-N,NNC(Cc1ccccc1C)C,-2.057148174,2.4805,164.247
,C9557,IFRTXENWUYJADC-UHFFFAOYSA-L,O=[I]c1ccccc1C(=O)O,0.511853735,1.8706,264.017
,C9033,IFSQBTQASZDHGA-UHFFFAOYSA-N,N[C@H](C(=O)O)CS.Cl,-0.144510837,0.8304,157.619
,C9469,IFXPDZHFZMVVKL-UHFFFAOYSA-N,CC[N+](CCS(=O)CC[N+](CC)(C)C)(C)C.[Br-].[Br-],0.386948245,-4.1986,410.252
,C6444,IGDRIKGAYWASDW-UHFFFAOYSA-N,OCC(COc1ccc(c(c1)C)C)(O)C,-2.449462888,1.4255,210.27
,C8754,IGJPXFSNRBWVEN-UHFFFAOYSA-N,CNC(=O)Oc1cccc(c1)C[NH+](C)C.[Cl-],-0.573089923,-2.5558,244.718
,C5294,IGMOYJSFRIASIE-UHFFFAOYSA-N,CN(c1c(C)n(C2CCCCC2)c(=O)n(c1=O)C)C,-3.170977501,1.4266,265.351
,C3461,IGPQBGUKWXQYCV-UHFFFAOYSA-N,OC(=O)C(=O)O.CNCC=C(c1ccc(cc1)Cl)c1ccc(cc1)Cl.CNCC=C(c1ccc(cc1)Cl)c1ccc(cc1)Cl,-4.573670815,9.2264,674.441
,C1205,IGUGQDSSBKNSBH-UHFFFAOYSA-N,CC(CC(=O)CC(=O)C)C,-1.6,1.5807,142.196
,C5079,IGVCNYSLCSHUBO-UHFFFAOYSA-L,CCN1CCCC(C1)OC(=O)Nc1ccc(cc1)C#N,-3.326107124,2.60198,273.33
,C4902,IGVGULKYVNFIOV-SPIKMXEPSA-N,FC(C(C(F)F)(Cl)Cl)F,-3.454793178,2.6905,184.948
,C9373,IGVRMQTYZVEVJA-UHFFFAOYSA-L,C[N+](CC[N+]1(C)CC2CCCC(C1)C2)(C)C.[I-].[I-],0.318562461,-4.074,480.21
,C1789,IGXOSKVDCFQEBF-UHFFFAOYSA-N,c1ccc(cc1)C(c1ccccc1)N1CCN(CC1)CC1COC2(O1)c1ccccc1CCc1c2cccc1.OC(=O)/C=C\C(=O)O.OC(=O)/C=C\C(=O)O,-9.407515023,5.1083,748.817
,C4754,IHBSVVZENGBQDY-BBWFWOEESA-N,C[N+]1(CCCCCC[N+]2(C)CCOCC2)CCOCC1.[I-].[I-],-3.571242031,-4.574,540.262
,C6207,IHDMJEPWSOHAAL-UHFFFAOYSA-N,O=C(C(c1ccccc1)(c1ccccc1)O)OC1CCCNC1,-2.593471621,2.5465,311.375
,C5158,IHEHEFLXQFOQJO-UHFFFAOYSA-N,CN1CC[C@@]23[C@H]([C@H]1Cc1c3cccc1)CCCC2,-3.272107992,3.3127,241.371
,C5221,IHFBWHHINXWEGS-UHFFFAOYSA-N,CN(CCOC(=O)C(c1ccccc1)c1ccccc1)C.Cl,-3.226164253,3.7253,319.826
,C2436,IHHFWUALAIRFQB-NTMALXAHSA-N,N#CC(c1ccccc1)(c1ccccc1)CCN1CCC(CC1)(N1CCCCC1)C(=O)N,-5.942900067,4.26828,430.585
,C3054,IHHSSHCBRVYGJX-UHFFFAOYSA-N,CC(=CCC(c1cccc2c1cccc2)(C(=O)N)CCN1CCOCC1)C,-5.039035097,4.2797,366.496
,C5719,IHIDFKLAWYPTKB-UHFFFAOYSA-N,Clc1ccc2c(c1)n(C)c(=N)o2,-2.901681916,2.0039,182.607
,C3206,IHJCNWSMNSEGEK-UHFFFAOYSA-N,COc1ccc2c(c1)c(N)c1c(n2)cc(cc1)Cl,-4.867497689,4.2134,258.703
,C133,IHJUECRFYCQBMW-UHFFFAOYSA-N,Clc1cccc(c1c1ccc(cc1)Cl)Cl,-6.1399999,5.3138,257.543