Name,Compound ID,InChIKey,SMILES,logS,logP,MW
,C5975,PIHCZKMPOKNUMQ-UHFFFAOYSA-N,CC(=O)c1c(O)cc(c(c1O)C(=O)C)O,-2.734890754,1.2086,210.183
,C7396,PIJVFDBKTWXHHD-HIFRSBDPSA-N,CN(C(=O)c1nnn(c1C)c1ccccc1)C,-1.821909772,1.2775,230.266
,C7172,PIMJYOORDYDRBD-UHFFFAOYSA-N,Brc1ccc(nc1)OCCN1CSCC1.Cl,-1.977455616,2.9691,325.653
,C7768,PIMZWOPHBQBFRH-UHFFFAOYSA-N,CNC(=O)Oc1ccc2c(c1)[C@]1(C)CCN([C@@H]1N2C)C,-1.549914581,2.1677,275.346
,C6389,PINNQKFNRKECFX-UHFFFAOYSA-N,NC(=O)NCCc1c(C)cccc1C,-2.485933789,2.6054,192.258
,C3274,PINRKRQYFSAIKY-UHFFFAOYSA-N,CCCCN1CCC(CC1)(OC(=O)CC)c1ccccc1C.Cl,-4.765687708,4.7793,339.9
,C8376,PIOPKWFBKZTUMS-UHFFFAOYSA-N,CCNc1nncs1,-1.000608932,1.0429,129.183
,C4158,PIQVDUKEQYOJNR-VZXSFKIWSA-N,OC(=O)c1ccc2c(c1)c(N)c1c(n2)cccc1,-3.998627717,3.2496,238.241
,C9487,PISKUTGWQHZKIK-UHFFFAOYSA-M,Nc1cccccc1=O,0.403854391,1.2102,121.137
,C9379,PISUWIAFYNMOIB-UHFFFAOYSA-N,COC(=O)[C@H]1[C@H](C[C@H]2N([C@@H]1CC2)C)OC(=O)c1ccccc1.Cl,0.322454376,2.6076,339.814
,C4633,PIXBDAJCAOOONR-UHFFFAOYSA-L,C[N+]1(CCCC1)CCC(c1ccccc1)(C1CCCCC1)O.[Cl-],-3.648587556,1.0478,337.927
,C4802,PIXFHVWJOVNKQK-OAZQVCGISA-N,CC1CCCCN1CCCOC(=O)c1ccccc1O,-3.538334562,2.7514,277.359
,C9290,PIZFMLLHVVBRNN-UHFFFAOYSA-M,O=C(OC[N+](C)(C)C)CCCCC(=O)OC[N+](C)(C)C.[I-].[I-],0.26423108,-5.0314,544.208
,C553,PJANXHGTPQOBST-VAWYXSNFSA-N,O[C@H]1CC[C@]2([C@H](C1)CC[C@@H]1[C@@H]2[C@H](O)C[C@]2([C@H]1CCC2=O)C)C,-3.5899999,2.9299,306.44
,C6407,PJDRMPCBIWKBJA-UHFFFAOYSA-N,OC(c1ccccc1)C(=O)OC1CC2CCC(C1)[N+]2(C)Cc1cccc2c1cccc2.[Cl-],-2.470438356,1.7194,451.985
,C2522,PJFNNMFXEVADGK-UHFFFAOYSA-N,c1ccc(cc1)/C=C/c1ccccc1,-5.790492422,3.857,180.245
,C3793,PJGOWSFDWNQUOK-JTHROIFXSA-N,COc1cc(CCN2CCN(CC2)c2ccccc2Cl)ccc1OC,-4.256335213,3.7248,360.878
,C8846,PJGSXYOJTGTZAV-UHFFFAOYSA-N,OCC(=O)Nc1ccccc1,-0.44705746,0.6904,151.163
,C1783,PJHYOCWMKYASAB-UHFFFAOYSA-N,CCCCCCC[NH+](C(=N)c1ccc(c2c1cccc2)OC)CCCCCCC.[Cl-],-9.454721532,3.1032,433.07
,C1448,PJISLFCKHOHLLP-UHFFFAOYSA-N,CC(=O)C(C)(C)C,-0.72000003,1.6215,100.159
,C7204,PJKVFARRVXDXAD-UHFFFAOYSA-N,CCCCCc1ccc(cc1O)O,-1.954838025,2.8305,180.244
,C8433,PJMPHNIQZUBGLI-UHFFFAOYSA-N,CCOP(=O)(OCC)SCCN(CC)CC,-0.949862709,3.2425,269.341
,C5704,PJMQBIMLDBAWRK-UHFFFAOYSA-N,O=Cc1ccc2c(c1)cccc2,-2.90852954,2.6523,156.181
,C5223,PJMSJOVJUFYHTQ-UHFFFAOYSA-N,CCC(=O)N(c1ccccc1)C1CCN(CC1)CCc1ccccc1,-3.225927969,4.0746,336.471
,C8526,PJNPZIYGODMAQE-UHFFFAOYSA-N,NCCc1cc(OC)ccc1OC.Cl,-0.875446447,2.7073,217.693
,C5595,PJSFRIWCGOHTNF-UHFFFAOYSA-N,O=C(c1ccc(cc1)[N+](=O)[O-])Nc1ccncc1,-2.97776289,2.8383,243.218
,C6663,PJSNFIXEOXHFHW-UHFFFAOYSA-L,ClCc1cc(ccc1O)[N+](=O)[O-],-2.303302549,2.5624,187.58
,C7043,PJVCNRSWJSLGCV-UHFFFAOYSA-N,COc1c(OC)ncnc1NS(=O)(=O)c1ccc(cc1)N,-2.060940016,2.6118,310.329
,C3515,PJVJTCIRVMBVIA-UHFFFAOYSA-N,C[N+]1(CCC[N+]2(C)CCOCC2)CC2CCCC(C1)C2.[I-].[I-],-4.522566543,-3.9545,536.274
,C6058,PJVWKTKQMONHTI-HNNXBMFYSA-N,C1CCN(CC1)CCc1c[nH]c2c1cccc2,-2.680061716,3.1342,228.333
,C8996,PJWPNDMDCLXCOM-UHFFFAOYSA-N,CCOP(=O)(N(C)C)C#N,-0.218634628,1.25868,162.127
,C477,PJXYUBAEEYRXTO-UHFFFAOYSA-M,CC(=O)C[C@H](c1c(=O)oc2c(c1O)cccc2)c1ccccc1,-3.8900001,3.6096,308.328
,C2780,PKALPKIBIKMTCN-UHFFFAOYSA-N,COc1ccc(cc1)C(=O)Nc1ccccc1CCC1CCCCN1C,-5.391492382,4.3753,352.47
,C5077,PKBLCJMYOKEVNM-UHFFFAOYSA-M,CCCC(C1(CC(=C)Br)C(=O)NC(=NC1=O)[O-])C.[Na+],-3.326291059,1.915,339.161
,C8931,PKIXYTOIAIGZDT-UHFFFAOYSA-M,OCC(COc1ccccc1NC(=O)C)O,-0.331463932,0.45,225.241
,C7364,PKKDWPSOOQBWFB-UHFFFAOYSA-N,CCC1(CCC(C)C)C(=O)[N-]C(=S)NC1=O.[Na+],-1.836667653,1.7933,264.32
,C5073,PKOFBDHYTMYVGJ-UHFFFAOYSA-N,CC(CC1(OC(=O)[N-]C1=O)c1ccccc1)C.[Na+],-3.331417071,2.309,255.245
,C2460,PKPLURVGDLZTTR-UHFFFAOYSA-N,Clc1cc(Cc2cc(Cl)cc(c2O)Cl)c(c(c1)Cl)O,-5.895454669,5.3022,338.013
,C1195,PKVHOAMFMQZDHR-UHFFFAOYSA-N,CC(=O)Nc1ccc(cc1)S(=O)(=O)N,-1.61,2.1465,214.242
,C6114,PKVZBNCYEICAQP-UHFFFAOYSA-N,CCCCC(COC(=O)N)(COC(=O)NC)C,-2.653489446,2.7254,246.303
,C5691,PKWIYNIDEDLDCJ-UHFFFAOYSA-N,CCC(c1ccc(cc1)Cl)(CO)CO,-2.915169286,1.9724,214.689
,C6630,PKYOHQGXPPVIGD-HNNXBMFYSA-N,CNC1(C)C2CCC(C1(C)C)C2.Cl,-2.327287536,3.6135,203.752
,C9919,PLAZTCDQAHEYBI-UHFFFAOYSA-N,Nc1[nH]nc(n1)N,1.003939493,0.1315,99.0946
,C4179,PLBHSZGDDKCEHR-LFYFAGGJSA-N,COc1c2c(CC[C@@H](c3c2ccc(c(=O)c3)SC)NC(=O)C)cc(c1OC)O,-3.980411369,3.6728,401.476
,C957,PLDUPXSUYLZYBN-UHFFFAOYSA-N,[O-][N+](=O)c1ccccc1C,-2.3299999,2.4264,137.136
,C3616,PLENFHSJZZDRNT-GPPWNDLUSA-N,CC(=O)OCC(=O)[C@@]1(O)CC[C@@H]2[C@]1(C)C[C@H](O)[C@H]1[C@H]2C[C@@H](C2=CC(=O)C=C[C@]12C)C,-4.420972527,2.3744,416.507
,C418,PLEZOOJZXNJFCF-UHFFFAOYSA-N,OCCN1CCN(CC1)CCCN1c2ccccc2Sc2c1cc(cc2)C(F)(F)F,-4.1500001,4.2489,437.522
,C8735,PLGBHXSQSNOWAZ-UHFFFAOYSA-N,CO[C@H]1C=CC2=CC[NH+]3[C@]2(C1)C1=C(CC3)COC(=O)C1.[Cl-],-0.60064639,-1.2546,309.788
,C5640,PLHJDBGFXBMTGZ-WEVVVXLNSA-N,CN(CCCC1(OC(=O)c2c1cccc2)c1ccccc1)C.Cl,-2.950385795,4.2444,331.836
,C3090,PLIGPBGDXASWPX-UHFFFAOYSA-N,CN(c1nc(c(o1)c1ccccc1)c1ccccc1)C,-5.003841879,4.0746,264.322
,C4469,PLIKAWJENQZMHA-UHFFFAOYSA-N,O=C1OCCN1/N=C/c1ccc(o1)[N+](=O)[O-],-3.750431249,1.435,225.158
,C2946,PLILWSQASBSXGX-UHFFFAOYSA-N,CN(CCCn1c2CCCCCCc2c2c1cccc2)C,-5.166199613,4.252,284.439
,C1427,PLLGIMWGTWNSQB-UHFFFAOYSA-N,Nc1ccc(cc1)O,-0.80000001,1.5556,109.126
,C4096,PLMWNIIKHJBQEG-KSMVGCCESA-N,Clc1ccc(nc1)OCCCCCCCN1CCSC1.Cl,-4.04740467,4.8105,351.335
,C8197,PLNNJQXIITYYTN-UHFFFAOYSA-N,OCC(COc1ccccc1C(=O)C)O,-1.195587826,0.6212,210.226
,C5658,PLPDHGOODMBBGN-VOTSOKGWSA-N,[O-][N+](=O)c1ccc(s1)/C=C/c1scc(n1)CN1CCOCC1.Cl,-2.942292743,4.3785,373.878
,C8666,PLRXAFVBCHEMGD-UHFFFAOYSA-N,NNC(=O)C(C)C,-0.719594145,0.7235,102.135
,C7966,PLUBXMRUUVWRLT-UHFFFAOYSA-N,O=C(c1ccccc1)/C=C/C(=O)O,-1.398361785,1.5101,176.169
,C9102,PLZUGJMGQQVNND-UHFFFAOYSA-N,OCCCN1CCCCC1,-0.022495084,0.7926,143.227
,C9135,PLZVEHJLHYMBBY-UHFFFAOYSA-N,CCOS(=O)(=O)C,0.034761568,1.0633,124.159
,C4661,PMAHPMMCPXYARU-UHFFFAOYSA-N,CCCC(COC(=O)N)(COC(=O)NC(C)C)CC,-3.633501683,3.504,274.357
,C2929,PMATZTZNYRCHOR-CGLBZJNRSA-N,CCCCCCCCCCCCCCN,-5.189648465,5.3465,213.403
,C5996,PMDQSBZXEATWCG-DEKXFLRUSA-N,NC(=O)C(c1ccccc1)(c1ccccc1)CC[N+]1(C)CCCCC1.[Br-],-2.717670284,1.1417,417.382
,C2944,PMDUNHOOULGNCQ-UHFFFAOYSA-N,C/C=C/C[C@H]([C@H]([C@H]1C(=O)N[C@@H](CC)C(=O)N(C)CC(=O)N(C)[C@@H](CC(C)C)C(=O)N[C@@H](C(C)C)C(=O)N(C)[C@@H](CC(C)C)C(=O)N[C@H](C(=O)N[C@@H](C(=O)N([C@H](C(=O)N([C@H](C(=O)N([C@H](C(=O)N1C)C(C)C)C)CC(C)C)C)CC(C)C)C)C)C)O)C,-5.170310469,4.1495,1202.61
,C8804,PMEBEBFMHFRYOR-UHFFFAOYSA-N,OC[C@H](c1ccccc1)C(=O)OC1C[C@@H]2N[C@H](C1)[C@@H]1[C@H]2O1.Cl,-0.508615043,1.7067,325.787
,C5557,PMFYONXEPDMBPE-CTERPIQNSA-M,N#Cc1ccc2c(c1)C(=NCC(=O)N2C)c1ccccc1,-3.0103943,1.87268,275.305
,C6170,PMGCQNGBLMMXEW-UHFFFAOYSA-N,CCC(C(COC(=O)N)(COC(=O)N)C)CC,-2.6126023,3.0201,246.303
,C9562,PMIAXZGCKWNUAL-UHFFFAOYSA-N,O[C@@H]1C[C@H](O[C@H]1C)C[N+](C)(C)C.[I-],0.521191175,-2.7651,301.165
,C672,PMLBXJKQYSENQH-UHFFFAOYSA-N,CC(CCOC(=O)c1ccccc1O)C,-3.1600001,2.5951,208.254
,C7054,PMMGJFAJXQRKGJ-UHFFFAOYSA-N,CC1N=C(OC1(C)C)Nc1ncc(s1)[N+](=O)[O-],-2.057304963,2.0483,256.282
,C3935,PMMKVFWFTRDMLW-UHFFFAOYSA-N,OC(=O)c1ccccc1Sc1ccccc1,-4.150070521,3.536,230.282
,C4400,PMMVFTJVAUABLF-UHFFFAOYSA-N,Clc1cnc(c(c1)Cl)OCCCCCN1CSCC1.Cl,-3.804577921,4.6837,357.727
,C5498,PMMVHZSWDJDSQU-UHFFFAOYSA-N,CCC(C(COC(=O)N)(COC(=O)N(C)C)C)C,-3.042618905,2.5326,260.33
,C5383,PMNBNUKPDNHZFI-UHFFFAOYSA-N,OC(CN1CCCCC1)COc1cccc2c1cccc2.Cl,-3.109706758,3.8053,321.842
,C5906,PMRYVIKBURPHAH-UHFFFAOYSA-N,CCC(=O)N1OCc2c(C1)ccc(c2)[N+](=O)[O-],-2.774539046,2.2397,236.224
,C7913,PMTSPAGBAFCORP-HBUONDEYSA-N,O/N=C(/Cn1ccc2c1cccc2)\N,-1.443815336,2.088,189.214
,C9464,PMUNIMVZCACZBB-UHFFFAOYSA-N,Cn1cc[nH]c1=S,0.381795909,1.0827,114.169
,C5345,PMVSDNDAUGGCCE-TYYBGVCCSA-L,CO[C@H]1[C@H](O)[C@H](O[C@H]2CC[C@]3([C@@H](C2)CC[C@@H]2[C@@H]3CC[C@]3([C@]2(O)CC[C@@H]3C2=CC(=O)OC2)C)C=O)O[C@H]([C@@H]1O)C,-3.137253574,2.2892,548.665
,C9920,PMWFVHVKRYLNKN-UHFFFAOYSA-L,NCCO.Cl,1.010808344,0.4397,97.544
,C7007,PMXNPOJHBQDJKS-UHFFFAOYSA-N,[O-]C(=O)/C=C/C(=O)[O-].[Fe+2],-2.084067899,-2.9601,169.901
,C9421,PMZGFJILOVXDQX-UHFFFAOYSA-N,C[N+](CCC[n+]1cc2ccccc2c2c1cccc2)(C)C.[Br-].[Br-],0.356327281,-2.6152,440.215
,C8558,PMZHTDUYMYPVOC-UHFFFAOYSA-L,COC(=O)c1sccc1S(=O)(=O)N,-0.837017593,1.9632,221.254
,C3873,PNADBYWNNBOKJK-UHFFFAOYSA-N,C1CCN(C1)CCC12CC3CC(C2)CC(C1)C3.Cl,-4.190584424,4.4286,269.853
,C9313,PNHMBKXVXNJADT-UHFFFAOYSA-N,O(C[N+]12CCC(CC1)CC2)C[N+]12CCC(CC1)CC2.[I-].[I-],0.283797945,-3.8954,520.231
,C4098,PNJUPRNTSWJWAX-ZDUSSCGKSA-N,CN(CC=C(c1cccc(c1)F)c1ccc(cc1)Cl)C.Cl,-4.04666425,5.2744,326.236
,C9332,PNPCRKVUWYDDST-UHFFFAOYSA-N,OC(=O)CCCN1CCOCC1,0.292900916,0.1213,173.21
,C5600,PNUYXAYDWHIMEC-UHFFFAOYSA-N,COc1cc2CCN([C@@H]3c2c(c1O)C1(C=CC(=O)C=C1)C3)C,-2.976344137,2.2043,297.348
,C1279,PNVJTZOFSHSLTO-UHFFFAOYSA-N,Nc1cccc(c1)Cl,-1.37,2.5034,127.572
,C2175,PNWVOLKZHJEWQU-UHFFFAOYSA-N,BrCCSCCCCC(=O)NCCNC(=O)CCCCSCCBr,-6.555236839,4.5974,506.36
,C320,PNZKOOCCVBURLG-UHFFFAOYSA-N,CSc1ccc(cc1C)OP(=S)(OC)OC,-4.5700002,4.2636,278.328
,C6495,POAOYUHQDCAZBD-UHFFFAOYSA-N,O=C(c1ccccc1)Nc1ccncc1,-2.416916673,2.4069,198.221
,C7250,POAXZLNEIRHMQK-UHFFFAOYSA-N,CC(Cc1ccccc1)NN(C)C,-1.924764353,2.0747,178.274
,C1500,POBJFOWZTSZNQJ-UHFFFAOYSA-N,CCCCOCCO,-0.41999999,0.7954,118.174
,C2204,POBVODLJHWXYOA-UHFFFAOYSA-N,CCCCOc1ccc(cc1)OCC(=O)N(c1ccc(cc1OC)OC)CCN(CC)CC.Cl,-6.471938743,5.4385,495.051
,C3759,POHGXZJNLJXCRA-UHFFFAOYSA-N,OCC1(COC(OC1)c1ccc(c(c1)OC)OC)Nc1nc(nc(n1)N1CC1)N1CC1,-4.281755328,0.6204,430.458
,C3058,POIHJFVPVYHGMS-UTONKHPSSA-N,N(Cc1cccs1)CC1CCC(CC1)CNCc1cccs1.Cl.Cl,-5.034892862,6.8812,407.464
,C3270,POJWUDADGALRAB-SFOWXEAESA-N,[O-][N+](=O)c1ccc(cc1)n1c(C)nc2c(c1=O)cccc2.Cl,-4.768859591,3.9275,317.727
,C5835,POKIXMUTMSQCFD-OISMXEOCSA-N,Oc1ccc2c(c1O)c1cccc3c1[C@@H](C2)[NH2+]CC3.[Cl-],-2.823547677,0.0547,289.757
,C1200,POLCUAVZOMRGSN-UHFFFAOYSA-N,NC(=O)N[C@H]1NC(=O)NC1=O,-1.6,-0.431,158.115
,C4286,PONPPNYZKHNPKZ-RYBWXQSLSA-N,COc1cc(ccc1OC)/C(=[NH+]\OCC(=O)NCC[NH+]1CCOCC1)/c1nccc2c1cc(OC)c(c2)OC.[Cl-].[Cl-],-3.89098601,-4.8818,611.514
,C1191,POPFMWWJOGLOIF-XWCQMRHXSA-N,CCCOCCC,-1.62,1.823,102.175
,C6903,PORLHOLWCPTEOL-UHFFFAOYSA-L,CO[C@@H]1[C@@H](O)[C@@H](O[C@H]2[C@@H](O[C@@H]([C@@H]([C@@H]2O)O)C)Oc2cccc3c2c2oc(=O)c4c5c2c(c3O)c(=O)oc5ccc4C)O[C@@H]([C@@H]1O)C,-2.147427579,1.3698,640.588
,C2632,POULHZVOKOAJMA-UHFFFAOYSA-N,OCC(=O)[C@@]12OC(O[C@@H]1C[C@@H]1[C@]2(C)C[C@H](O)[C@H]2[C@H]1C[C@@H](C1=CC(=O)CC[C@]21C)F)(C)C,-5.601781498,2.4987,436.514
,C9331,POUMFISTNHIPTI-BOMBIWCESA-N,O=C(C1C[N+]2(C)CCC1CC2)OCC[N+](C)(C)C.[I-].[I-],0.292260388,-5.311,510.193
,C306,POVITWJTUUJBNK-UHFFFAOYSA-N,CCCCCCCCCCCC(=O)O,-4.6199999,3.9919,200.318
,C6060,POVKKBUQFDAVOF-UHFFFAOYSA-N,CCC[C@H]1CN([C@@H](C1)C(=O)N[C@@H]([C@H]1O[C@H](SC)[C@@H]([C@H]([C@H]1O)O)O)[C@H](O)C)C.Cl,-2.679320071,0.2738,442.998
,C8473,POWMMMXVDBMFMP-QPMAGJLNSA-N,C=CC(=O)Nc1ccc(cc1)O,-0.924854526,1.5897,163.173
,C4708,POYMPTXRBMLDIL-GZTJUZNOSA-N,CCN1CCCC(C1)OC(=O)Nc1cccc(c1)Cl,-3.598340746,3.3837,282.766
,C5625,POYVBLZDHNJRJS-UHFFFAOYSA-N,O=C1CC[C@]2([C@@H](C1)CC[C@@H]1[C@@H]2C[C@@H](O)[C@]2([C@]1(O)CC[C@@H]2C1=CC(=O)OC1)C)C,-2.963055127,2.7833,388.497
,C4632,POZLVXCQXAUMAT-UHFFFAOYSA-N,CN(c1ccc(cc1)/C=N/c1ccccc1C(=O)O)C,-3.649050096,3.2014,268.31
,C2433,POZRVZJJTULAOH-JLTYPPDJSA-N,CCCCCCCCOc1cccc(c1)NC(=O)OCC[NH+]1CCCCC1.[Cl-],-5.947656279,2.6894,412.994
,C7349,POZZPXLZWADZGS-UHFFFAOYSA-M,COCC(=O)N1CC=Cc2c1cccc2,-1.844118334,1.7578,203.237
,C179,PPBRXRYQALVLMV-UHFFFAOYSA-N,C#C[C@@]1(O)CC[C@@H]2[C@]1(C)CC[C@H]1[C@H]2CCC2=Cc3c(C[C@]12C)cno3,-5.5100002,4.221,337.455
,C8331,PPCNBCKABHGVMX-OWOJBTEDSA-N,CCCCCCC(=O)Oc1cccc(c1)[N+](C)(C)C.[Br-],-1.061257005,0.7631,344.287
,C767,PPJYSSNKSXAVDB-UHFFFAOYSA-N,C=Cc1ccccc1,-2.8199999,2.3296,104.149
,C5897,PPLORUTUJXLHEI-UHFFFAOYSA-N,N#C/C=C/c1ccc(cc1)Cl,-2.780824627,2.87678,163.604
,C1779,PPNGBUNXPYHPHB-UHFFFAOYSA-L,OC(=O)Cc1cc(I)c(c(c1)I)Oc1cc(I)c(c(c1)I)O,-9.508316043,5.23,747.829
,C7420,PPQNQXQZIWHJRB-UHFFFAOYSA-N,OCCNC(=O)c1ccccc1OCC=C,-1.803315813,1.3644,221.252
,C9418,PPRPRPMMKPXRKK-YDYUUSCQSA-N,C[N+](CCC[n+]1ccc(cc1)C=Cc1ccccc1)(C)C.[Br-].[Br-],0.354342951,-2.7512,442.231
,C40,PPSVFZXMDMUIGB-FJUODKGNSA-N,Cc1ccc2c3c1CCc3c1c(c2)c2ccccc2cc1,-7.9200001,5.5532,268.352
,C9746,PPTYJKAXVCCBDU-UHFFFAOYSA-N,C[C@@H]([C@@H](c1cccc(c1)O)O)N.Cl,0.691081466,2.2751,203.666
,C4821,PPUPIWHVDCTDTQ-UHFFFAOYSA-L,O=C1OC(CN1/N=C/c1ccc(o1)[N+](=O)[O-])CN1CCOCC1.Cl,-3.527823778,1.8757,360.75
,C4656,PPVFOZYARYOARE-UHFFFAOYSA-N,CN1C(=O)CN=C(c2c1ccc(c2)[N+](=O)[O-])c1ccccc1F,-3.633991371,2.5715,313.283
,C9318,PPWHTZKZQNXVAE-UHFFFAOYSA-N,CC[N+](CCSCC[N+](CC)(CC)C)(CC)C.[I-].[I-],0.287090288,-3.2996,516.307
,C7777,PPXIIWYEVFSUCR-UHFFFAOYSA-N,COc1ccccc1OCCOCCOCCN1CCCCC1,-1.545996515,2.531,323.427
,C8663,PPZMYIBUHIPZOS-UHFFFAOYSA-N,CCCCNc1ccc(cc1)C(=O)OCCN(C)C.Cl,-0.724274426,3.492,300.824
,C7220,PQDNJBQKAXAXBQ-UHFFFAOYSA-N,CN1CCN(CC1)c1nc(NC(=O)C)nc(c1C)Cl,-1.945095319,1.2245,283.757
,C9789,PQGFVOURRHRXKN-AMDVSUOASA-N,NCCc1cnc[nH]1.Cl.Cl,0.735031144,2.2152,184.067
,C9864,PQJLRURZNPVKLU-UHFFFAOYSA-N,OCC(CF)O,0.829253341,-0.6909,94.0849
,C6028,PQLXJCRFZCRBNF-UHFFFAOYSA-N,N/C(=N\C[C@H]1CC2CC1CC2)/COS(=S)(=O)O,-2.696457819,3.1473,278.392
,C6232,PQMWYJDJHJQZDE-UHFFFAOYSA-M,ClCCN(C(=O)NCCCCNC(=O)N(N=O)CCCl)N=O,-2.572989301,2.412,357.194
,C8373,PQNFLJBBNBOBRQ-UHFFFAOYSA-N,OCCNc1ccccc1.Cl,-1.00412133,1.9658,173.64
,C4629,PQOSNJHBSNZITJ-QMMMGPOBSA-N,CC[N+](CCOC(=O)C1c2ccccc2Oc2c1cccc2)(CC)C.[Br-],-3.650249132,0.9578,420.34
,C708,PQQWTNHZXGJTDN-UHFFFAOYSA-N,C1Cc2c(C1)cccc2,-3.04,2.1753,118.176
,C1206,PQSSZNQPCOJKJV-UHFFFAOYSA-N,CCCC[C@](CC)(O)C,-1.6,2.3376,130.228
,C3893,PQSUYGKTWSAVDQ-JAZZVVOUSA-N,CC(N(C(C)C)CCN1C(=O)CCCc2c1cccc2)C,-4.179014591,3.5397,288.428
,C5708,PQUUAATYCNQHBX-UHFFFAOYSA-N,COc1cc(OCCCN2CSCC2)nc2c1cccc2,-2.907114697,2.9565,304.407
,C481,PQVZDTWRGIHYCU-UHFFFAOYSA-N,OCC(=O)[C@H]1CC[C@@H]2[C@]1(C=O)C[C@@H](O)[C@H]1[C@H]2CCC2=CC(=O)CC[C@]12C,-3.8499999,1.8457,360.444
,C5292,PQYGSSYFJIJDFK-UHFFFAOYSA-N,CCCC1(CCN(C1)C)c1cccc(c1)OC,-3.172117458,3.0065,233.349
,C1119,PQZNQMUIWLNPBP-UHFFFAOYSA-N,O=C1NC(=O)NC(=O)C21CC2,-1.89,-0.2098,154.123
,C2585,PQZSAKDDBHCRCN-UHFFFAOYSA-N,CCCCCCCC(=O)CCCCCCC,-5.684359957,5.2765,226.398
,C5327,PRBLRLQZOKOQCQ-UHFFFAOYSA-N,CC[NH+](C1=Nc2ccccc2c2c(N1)cccc2)CC.[Cl-],-3.147306663,-0.7311,301.814
,C3924,PRBORDFJHHAISJ-UHFFFAOYSA-N,Clc1cc2NC(=NS(=O)(=O)c2cc1S(=O)(=O)N)c1ccccc1,-4.157356794,3.9839,371.819
,C8586,PRBZWMUOQVJJMD-UHFFFAOYSA-M,NNCc1ccccc1.Cl,-0.809447479,2.5431,158.629
,C5253,PRGGTHPPVOPHHG-UHFFFAOYSA-N,CCCC(COC(=O)N)(COC(=O)NCCCC)C,-3.203299202,3.5056,274.357
,C6781,PRHMYCNOWXYHEI-UHFFFAOYSA-N,O=C1C(=C/C(=N/c2ccc(c(c2)Cl)[O-])/C=C1Cl)Cl.[Na+],-2.227936224,4.3844,324.522
,C6280,PRKMKMJCQDPUKG-UHFFFAOYSA-N,[O-][N+](=O)c1ccc(o1)COC(=O)CC,-2.546390048,2.1642,199.161
,C5521,PRLMFHYBTOQSLN-UHFFFAOYSA-N,O=C(Nc1ncco1)Nc1ccc(cc1)Cl,-3.027620181,3.118,237.642
,C3266,PRMOCPYCVSHNMG-UHFFFAOYSA-N,COc1ccc(cc1)C(=O)CCCN1CCC(=CC1)c1ccccc1,-4.782114135,4.3853,335.439
,C822,PRNNIHPVNFPWAH-UHFFFAOYSA-N,CSc1nc(nc(n1)N(C)C)N(C)C,-2.6800001,0.7255,213.303
,C1882,PRNVHVUEIITLRV-MWIGPOFTSA-N,BrCCN(c1ccc(cc1)OC(=O)c1ccccc1C(C)C)CCBr,-8.040945873,5.6254,469.21
,C8122,PROQIPRRNZUXQM-ZXXIGWHRSA-N,CCS(=O)(=O)c1ccc(cc1)F,-1.249350674,2.7001,188.219
,C9409,PRPINYUDVPFIRX-UHFFFAOYSA-N,C/N=C\1/CN(O)C(=c2c(=N1)ccc(c2)Cl)c1ccccc1.Cl,0.34902156,2.0247,336.216
,C244,PRSGGQYVNLJACX-CHHCPSLASA-N,Oc1ccc2c(c1)CC[C@@H]1[C@@H]2CC[C@]2([C@H]1C[C@H]([C@@H]2O)O)C,-4.9499998,2.58,288.381
,C827,PRUGQYWGIVNHEM-UHFFFAOYSA-N,OC(=O)Cc1cccc2c1cccc2,-2.6500001,2.4669,186.207
,C9032,PRVPQDZPPCTAMN-UHFFFAOYSA-N,O=[NH+]/C=c/1\n(COCc2ccccc2)ccn1C.[Cl-],-0.144927333,-3.129,281.738
,C4709,PRVVGOHCHSLWDE-UHFFFAOYSA-N,O=c1ncc2c([nH]1)[nH]c(=O)[nH]2,-3.59715708,-1.0605,152.111
,C1861,PRYMXHIMDPCGRF-UHFFFAOYSA-N,Clc1ccc(nc1)OCCCCCNCCSSCCNCCCCCOc1ccc(cn1)Cl.Cl.Cl,-8.28220656,8.5282,620.526
,C6567,PSADRZMLSXCSAS-UHFFFAOYSA-N,FCCN(C(=O)NC1CSCSC1)N=O,-2.363445707,1.8459,253.317
,C3445,PSCSJABYVDGLPH-UHFFFAOYSA-L,OCCN1CCN(CC1)CCC(=O)N1c2ccccc2Sc2c1cc(Cl)cc2.Cl.Cl,-4.587161009,5.0141,490.874
,C6254,PSCWWFOVTFSDGZ-UHFFFAOYSA-N,Clc1ccc2=NC(=O)CN(C(=c2c1)c1ccccc1)O,-2.563799597,0.721,286.713
,C3969,PSFDQSOCUJVVGF-UHFFFAOYSA-N,[O-]S(=O)c1ccc2c(c1)c(SSSc1cccc3c1cc(cc3)S(=O)[O-])ccc2.[Na+].[Na+],-4.125985983,7.648,522.611
,C6922,PSGAAPLEWMOORI-PEINSRQWSA-N,OP(=O)(O)O.CCN(CCc1onc(n1)c1ccccc1)CC,-2.141247436,1.6923,343.315
,C4272,PSICOFASYZDHQP-UHFFFAOYSA-N,Cc1nccc2c1[nH]c1c2cccc1,-3.903819882,3.0245,182.221
,C2697,PSIFNNKUMBGKDQ-UHFFFAOYSA-N,O=C1CC[C@]2(C(=C1)[C@@H](C)C[C@@H]1[C@@H]2CC[C@]2([C@H]1CC[C@]2(OC(=O)C)C(=O)C)C)C,-5.508004219,4.6552,386.524
,C1850,PSIKPHJLTVSQFO-UHFFFAOYSA-N,C=CCN(CCCN1c2ccccc2Sc2c1cc(cc2)C(F)(F)F)CC=C,-8.411013505,6.4372,404.492
,C2432,PSIRMGCYQXQWBH-UHFFFAOYSA-N,CCCCc1nc(c(n1Cc1ccc(cc1)c1ccccc1c1n[nH]nn1)CO)Cl,-5.95166953,4.2668,422.911
,C9051,PSJBSUHYCGQTHZ-UHFFFAOYSA-N,NNC(=O)CC(=O)NN,-0.120978426,-0.4613,132.121
,C7767,PSQIKYRNQLTHDK-UHFFFAOYSA-N,OCC(COc1ccccc1)(CO)CO,-1.550863137,0.0287,212.242
,C9914,PSTVHRSUNBSVIJ-UHFFFAOYSA-N,COCC(CO)O,0.974198666,-1.014,106.12
,C8411,PSVWKKQRXCPWBR-UHFFFAOYSA-N,CC(=O)Nc1n[nH]c(cc1=O)C,-0.971028594,0.1097,167.165
,C5475,PTBKFATYSVLSSD-ZZXKWVIFSA-N,CCCCCCC1(CC)C(=O)NC(=O)NC1=O,-3.054218506,2.3768,240.299
,C7019,PTDGWYJBSCQGJI-UHFFFAOYSA-M,NC(=O)OCC(c1ccccc1)(COC(=O)N)C,-2.079646312,2.5355,252.266
,C1005,PTEUWWFEEPASRM-UHFFFAOYSA-N,[O-][N+](=O)c1ccc(o1)/C=N/O,-2.1900001,1.5191,156.096
,C7567,PTFJIKYUEPWBMS-UHFFFAOYSA-N,Cc1[n+](CCC[N+](Cc2ccccc2)(C)C)ccc2c1[nH]c1c2cccc1.[Br-].[Br-],-1.694249939,-1.4083,519.315
,C5567,PTLILCRCEWAQGA-UHFFFAOYSA-N,CCCC(COC(=O)N)(COC(=O)NC1CC1)C,-3.002221529,2.8679,258.314
,C135,PTMBWNZJOQBTBK-UHFFFAOYSA-N,CCN(c1c(cc(cc1[N+](=O)[O-])C(F)(F)F)[N+](=O)[O-])CC(=C)C,-6.1199999,4.9706,333.263
,C8721,PTNZGHXUZDHMIQ-CVHRZJFOSA-N,O=Cc1cnc(n1C)[N+](=O)[O-],-0.637858375,0.664,155.112
,C9912,PTOLALBYYJIENX-UHFFFAOYSA-M,OCc1ccncc1,0.962063804,0.5739,109.126
,C7398,PTVWPYVOOKLBCG-UHFFFAOYSA-N,CN([C@@H]1C(=O)C(=C([C@@]2([C@H]1[C@@H](O)[C@@H]1[C@@H](C)c3cccc(c3C(=C1C2=O)O)O)O)O)C(=O)N)C.Cl,-1.819921601,0.9981,480.895
,C9112,PTYFYNKKKOLUQE-NWBUNABESA-N,CC(=O)Oc1c(C)cc(cc1[N+](C)(C)C)C.[Br-],-0.001745224,-0.5706,302.207
,C9070,PUADUYHPJCGDTM-UHFFFAOYSA-N,OCC(CN1CCN(CC1)c1ccccc1)O,-0.082344527,0.1647,236.31
,C4053,PUCADCOCQQBSLL-UHFFFAOYSA-N,OC(=O)C(=O)[O-].CCCC/C=[NH+]/CCNC(=O)c1cccc(c1OCC)OC,-4.070547567,-0.6229,396.435
,C2887,PUEDRVOCLLHKQK-UHFFFAOYSA-N,CCN(CCn1c2ccccc2n(c(=O)c2c1cccc2)O)CC,-5.242920607,3.0975,325.405
,C7383,PUEQRAGPCUCQJI-UHFFFAOYSA-N,OS(=O)(=O)SCCNCCCOc1nccc2c1cccc2,-1.826999106,3.601,342.434
,C2006,PUFQVTATUTYEAL-UHFFFAOYSA-N,N(CC1CCCCC1)CC1CCC(CC1)CNCC1CCCCC1.Cl.Cl,-7.141788809,7.5184,407.504
,C4806,PUIXISQSCVEHKU-FVWCLLPLSA-N,Brc1ccc(nc1)OCCCCCN1CSCC1.Cl,-3.536145296,4.1394,367.733
,C515,PUIYMUZLKQOUOZ-UHFFFAOYSA-N,CCCCOc1nc2ccccc2c(c1)C(=O)NCCN(CC)CC,-3.7,3.8762,343.463
,C4492,PUJDIJCNWFYVJX-UHFFFAOYSA-N,O=C1C[C@@H]2OCC=C3[C@H]4[C@@H]2[C@@H]2N1c1ccc(cc1[C@]12CCN([C@H]1C4)C3)[N+](=O)[O-],-3.731111358,2.5268,379.409
,C565,PUNRPAWKFTXZIW-UHFFFAOYSA-N,O=C(N(C)C)Nc1ccc(cc1)C(C)C,-3.54,2.9765,206.284
,C1517,PURWGRLHMWOIRC-UHFFFAOYSA-N,NC(=O)OCc1ccccc1,-0.34999999,1.9822,151.163
,C8651,PUSJAEJRDNPYKM-UHFFFAOYSA-N,CCC(C#C)(CC)O,-0.733285161,1.1707,112.17
,C2174,PUWVNTVQJFSBDH-RYUDHWBXSA-N,Clc1ccc2c(c1)N(CCCN1CCN(CC1)C(=O)N)c1c(S2)cccc1,-6.556023448,4.6702,402.941
,C6298,PUXBGTOOZJQSKH-UHFFFAOYSA-N,Cc1sc(c(c1)C(=O)C)C,-2.536882425,2.5675,154.229
,C9284,PUYOAVGNCWPANW-UHFFFAOYSA-N,ON(C(=O)C)CCC[C@@H]1NC(=O)[C@@H](NC1=O)CCCN(C(=O)C)O,0.261627844,-0.337,344.364
,C3300,PVBRXXAAPNGWGE-LGVAUZIVSA-L,OC(=O)C(c1ccc2c(c1)[nH]c1c2cc(cc1)Cl)C,-4.740681725,4.1626,273.714
,C5651,PVDMXWQWDSFJFI-BBJSDXRSSA-O,CC(COC(=O)c1ccc(cc1)N)C,-2.943687832,2.6628,193.242
,C9473,PVEPNJZYFVEYDT-UHFFFAOYSA-N,O[C@@H]1[C@H](O)[C@H](O[C@H]1n1cnc2c1[nH]c(N)nc2=O)COP(=O)([O-])[O-].[Na+].[Na+],0.390207162,-1.1121,407.184
,C8272,PVEVXUMVNWSNIG-ZEIJNTJCSA-N,CCCCCCOCN1C=C[NH+](/C/1=C/[NH+]=O)C.[Cl-],-1.119303278,-2.0007,276.783
,C3365,PVHUJELLJLJGLN-UHFFFAOYSA-N,CN(CCC(c1ccccc1)C1CCCCC1)C.Cl,-4.667573165,5.1042,281.864