Name,Compound ID,InChIKey,SMILES,logS,logP,MW
,C6147,WIWKLJSVMPRVIK-UHFFFAOYSA-N,CCC(N1CSCC1)Cc1ccc(cc1)OC.Cl,-2.628571545,3.7625,287.849
,C7253,WIYOPYDPWIXASZ-UHFFFAOYSA-N,CC1(C)CCC([NH2+]1)c1c[nH]c2c1cccc2.[Cl-],-1.923604392,0.918,250.767
,C7115,WIYZZHWXZCULNY-DHKWPOFJSA-N,OCC1CCC(CC1)C/N=C(/CSS(=O)(=O)O)\N,-2.027833389,2.4594,296.407
,C4108,WJAJPNHVVFWKKL-UHFFFAOYSA-N,COc1nnc(c(n1)c1ccccc1)c1ccccc1,-4.040239601,3.2142,263.294
,C1747,WJDDCFNFNAHLAF-UHFFFAOYSA-N,CCCCCCOc1ccc(c2c1cccc2)C(=N)[NH+](CCCCCC)CCCCCC.[Cl-],-11.01502535,4.2735,475.149
,C9087,WJFKNYWRSNBZNX-UHFFFAOYSA-N,COc1ccc(c(c1)C(C(N)C)O)OC,-0.057647603,1.7847,211.258
,C5176,WJIFKOVZNJTSGO-UHFFFAOYSA-N,O=C(c1ccc[nH]c1=O)Nc1c(C)cccc1C,-3.262098102,2.317,242.273
,C3012,WJJZQSCOTJYYSP-INIZCTEOSA-N,c1ccc2c(c1)Sc1c(N2)cccc1,-5.098046976,4.0328,199.272
,C568,WJLRKYSNJJCEPP-UHFFFAOYSA-N,Cc1cccc(c1)Br,-3.52,2.7575,171.034
,C4785,WJLVQTJZDCGNJN-UHFFFAOYSA-N,COc1c(OC)cc2c(c1OC)c1ccc(cc1[C@H](CC2)NC(=O)C)O,-3.553161851,3.5993,357.4
,C5037,WJNNTTIXPJJQJD-UHFFFAOYSA-N,N#CC(=NNc1ccccc1Cl)C#N,-3.358100856,2.22806,204.616
,C2025,WJNRCWZSQKPZIJ-UHFFFAOYSA-P,N/C(=N\CCCCCC/N=C(/N=C(/Nc1ccc(cc1)Cl)\N)\N)/N=C(/Nc1ccc(cc1)Cl)\N.Cl.Cl,-7.085510632,7.8878,578.368
,C7146,WJNRPILHGGKWCK-UHFFFAOYSA-N,FCCCCSC#N,-2.000600446,1.95038,133.187
,C1931,WJOGTCZNZPHODB-WQFRYHCKSA-N,Clc1ccccc1C[NH2+]CCCCCCCCC[NH2+]Cc1ccccc1Cl.[Na+].[Na+],-7.579229909,4.5511,455.415
,C349,WJOHZNCJWYWUJD-IUGZLZTKSA-N,CC(Nc1nc(NC(C)C)nc(n1)Cl)C,-4.4299998,2.3116,229.71
,C3151,WJRBRSLFGCUECM-UHFFFAOYSA-N,CC(=O)O[C@H]1CC[C@]2([C@@H](C1)CC[C@@H]1[C@@H]2CC[C@]2([C@]1(O)CC[C@@H]2C1=CC(=O)OC1)C)C,-4.919837764,4.1751,416.55
,C3073,WJTCGQSWYFHTAC-UHFFFAOYSA-N,CC(=O)OCC(=O)[C@@]12OC(O[C@@H]1C[C@@H]1[C@]2(C)C[C@H](O)[C@]2([C@H]1C[C@@H](C1=CC(=O)C=C[C@]21C)F)F)(C)C,-5.018507699,2.9376,494.525
,C1506,WJUXSWORFADQNG-UHFFFAOYSA-N,O=C1NCC(=O)N1,-0.40000001,-0.5166,100.076
,C416,WJVBIMBJLVWPNE-OQLLNIDSSA-N,C1CCCCCCC1,-4.1500001,3.1208,112.213
,C6382,WJYIASZWHGOTOU-UHFFFAOYSA-N,COc1ccc(cc1)CCCCNCC(SS(=O)(=O)O)C,-2.489621293,4.0037,333.467
,C8026,WKAVKKUXZAWHDM-JEDNCBNOSA-N,Oc1cccc(c1)/C=N/NC(=O)c1ccncc1,-1.329388879,1.942,241.245
,C1127,WKBWEUKBTUIKJX-AQFVONAPSA-N,CCCCCCCN,-1.85,2.6158,115.217
,C7468,WKCYFSZDBICRKL-UHFFFAOYSA-N,OC(=O)CC[C@@H](C(=O)O)NC(=O)C.OCCN(C)C,-1.758779255,-0.6283,278.302
,C3027,WKDGHNKIZHDFPJ-UHFFFAOYSA-N,COc1cccc(c1)CCN1CC[C@@]23[C@H]([C@H]1Cc1c3cc(cc1)O)CCCC2.Cl,-5.070442981,5.4418,413.98
,C9471,WKEDVNSFRWHDNR-UHFFFAOYSA-N,OCCCN(CC)CC,0.389049182,0.7106,131.216
,C4373,WKEFCGWXBSXUOD-DHZHZOJOSA-N,CC(=O)OC(CN1CCN(CC1)c1ccccc1)COc1ccccc1C(=O)C.Cl.Cl,-3.825827861,4.6288,469.401
,C552,WKGXYQFOCVYPAC-UHFFFAOYSA-N,O=C(c1ccccc1O)Nc1ccccc1,-3.5899999,2.7175,213.232
,C3582,WKKHCCZLKYKUDN-UHFFFAOYSA-N,COc1c(C(=O)/C=C/c2ccc(cc2)OC)c(OCCN(C)C)c(c2c1cco2)OC,-4.458618446,4.2951,425.474
,C7210,WKNBBIOMXMDXFA-UHFFFAOYSA-N,NC(=O)OCC(c1ccccc1)COC(=O)N,-1.951975275,2.3614,238.24
,C1034,WKOLLVMJNQIZCI-UHFFFAOYSA-N,OCc1c(Cl)cccc1Cl,-2.0999999,2.4857,177.028
,C5310,WKOSARRKKYFXDJ-UHFFFAOYSA-N,COc1cc(OCCCCCNCCSS(=O)(=O)O)nc2c1cccc2,-3.157006992,4.3898,400.513
,C1058,WKPWGQKGSOKKOO-RSFHAFMBSA-N,COc1cc(ccc1O)C(=O)O,-2.05,1.099,168.147
,C2889,WKPXEIUGKVJYTP-UHFFFAOYSA-N,Cc1ccc(cc1)C(c1ccccc1)OCCN[NH+]1CCCCC1.[Cl-],-5.241447811,1.6385,360.921
,C2437,WKRLQDKEXYKHJB-HFTRVMKXSA-N,CO[C@@H]1/C=C/C=C(\C)/Cc2cc(OC)c(c(c2)N(C(=O)C[C@@H]([C@]2([C@H]([C@@H]([C@@H]3C[C@@]1(O)NC(=O)O3)C)O2)C)OC(=O)[C@@H](N(C(=O)C)C)C)C)Cl,-5.942771339,3.9282,692.196
,C5813,WKRLQDKEXYKHJB-HFTRVMKXSA-N ,OC(COc1ccccc1)CNCC1CCc2c(N1)cccc2.Cl.Cl.O,-2.842247597,4.5114,403.343
,C199,WKSAUQYGYAYLPV-UHFFFAOYSA-N,Oc1ccc2c(c1)CC=C1[C@@H]2CC[C@]2([C@H]1CCC2=O)C,-5.2800002,3.7375,268.35
,C1673,WKURVXXDGMYSDP-UHFFFAOYSA-N,Oc1ccc2c(c1)CC=C1[C@@H]2CC[C@]2([C@H]1CCC2=O)C	,-5.28 ,3.7375,268.35
,C5101,WKWQIMRIQQDCEM-UHFFFAOYSA-N,CCc1nc(N)nc(c1c1ccc(cc1)Cl)N,-3.311839431,3.6862,248.711
,C6500,WLBASKRZYJUCTA-UHFFFAOYSA-N,CCCc1ccccc1N,-2.413421548,2.8025,135.206
,C8069,WLBDHRQPFMZSBF-UHFFFAOYSA-N,[O-][N+](=O)c1ncc(n1C)CC(O)C,-1.296325267,0.7748,185.181
,C7976,WLCFKPHMRNPAFZ-UHFFFAOYSA-M,CC(=O)Nc1occ(n1)C(F)(F)F,-1.387141576,1.7248,194.111
,C8198,WLCJLILAPNEMNQ-UHFFFAOYSA-M,OCC(COc1ccc(cc1)C(=O)C)O,-1.195587826,0.6212,210.226
,C1890,WLEGHNSHAIHZPS-FVGYRXGTSA-N,CCCCCCCCCCCC[N+](CCCCCCCCCCCC)(C)C.[Cl-],-7.903704189,5.9086,418.183
,C9008,WLEGHNSHAIHZPS-SBSPUUFOSA-N,[O-][Cl](=O)(=O)=O.CC(=CC=CN1CCCC1)C=[N+]1CCCC1,-0.189648368,2.5303,318.796
,C6506,WLFCZUKGFJNFQY-UHFFFAOYSA-N,CN[C@H](CC1CCCCC1)C.Cl,-2.404197723,3.7576,191.741
,C6505,WLJNZVDCPSBLRP-UHFFFAOYSA-N,CN[C@@H](CC1CCCCC1)C.Cl,-2.404197723,3.7576,191.741
,C2270,WLJVXDMOQOGPHL-UHFFFAOYSA-N,CS(=O)(=O)O.CN1CCN(CC1)CCCN1c2ccccc2Sc2c1cc(Cl)cc2,-6.295560632,5.1058,470.048
,C8775,WLKAPQROLQEIEH-UHFFFAOYSA-N,OC(=O)c1cc2ccccc2c(c1O)Cc1c(O)c(cc2c1cccc2)C(=O)O,-0.553021722,4.3914,388.37
,C1398,WLOGRANXQCUIPF-UHFFFAOYSA-N,OC(=O)Cc1ccccc1,-0.88999999,1.3137,136.148
,C3101,WLOXDXOPKNBBFP-UHFFFAOYSA-N,OC(=O)C(=O)[O-].COc1cccc2c1c1ccccc1n2CCC[NH+](C)C,-4.990109175,0.1586,372.415
,C8503,WLQUAZIPFVGROS-UHFFFAOYSA-N,NCCS(=O)(=O)N1CCCCC1,-0.892992208,1.4798,192.279
,C8060,WLRMANUAADYWEA-NWASOUNVSA-N,[O-][N+](=O)c1ncc(n1C)C(O)(C)C,-1.309371801,1.0789,185.181
,C5337,WLSWIPXQPOWVGX-UHFFFAOYSA-N,Cc1ccc(cc1C)[NH2+]C(=O)c1ccncc1.[Cl-],-3.140767636,-1.2623,262.735
,C6812,WLSZCRGYFKVPFO-UHFFFAOYSA-N,O[C@H](COc1nsnc1N1CCOCC1)CNC(C)(C)C.OC(=O)/C=C\C(=O)O,-2.198227516,0.6702,432.492
,C2507,WLUHBKYWTLXULJ-UHFFFAOYSA-N,CCCC(COC(=O)NN=C(C)C)(COC(=O)NN=C(C)C)C,-5.823573408,3.8186,328.407
,C7377,WLWFNJKHKGIJNW-UHFFFAOYSA-N,NCCS/C(=N\CC)/NCC.Br.Br,-1.830552612,3.6711,337.119
,C5431,WLWRBOFZMOBYJR-UHFFFAOYSA-N,CCCCCCCSCCN1CSCC1.Cl,-3.078443036,4.4362,283.925
,C7932,WLYYOFJEBGHKEC-VQYXCCSOSA-N,CN1C(=O)CC(C1=O)c1ccccc1,-1.43080179,1.0968,189.211
,C6198,WMARGRHKDQCEBH-UHFFFAOYSA-N,O=c1[nH]c2c(o1)cc(c(c2)Cl)Cl,-2.597835712,2.4279,204.01
,C7292,WMCUHRDQSHQNRW-UHFFFAOYSA-N,O=C1CCCN1CC#CCN1CCCC1.O=C1CCCN1CC#CCN1CCCC1.OC(=O)/C=C/C(=O)O.OC(=O)/C=C/C(=O)O.OC(=O)/C=C/C(=O)O,-1.894047855,0.303,760.785
,C3901,WMHPFELNGHYGPL-UHFFFAOYSA-N,CCc1ccc2c(c1)C(=O)C(CC2)C[NH+]1CCCCC1.[Cl-],-4.174488866,0.6361,307.858
,C6283,WMIAQXWVZFAYQL-UHFFFAOYSA-N,FCCCCBr,-2.544348279,2.131,155.009
,C5307,WMISISUCUDFLOA-UHFFFAOYSA-N,OC(CN1CCN(CC1)c1ccccc1)COc1ccc(cc1C)C(=O)C,-3.158170408,2.7624,368.469
,C2691,WMPOQBVJQZWVBU-HQRUICKWSA-N,O=C1NC(=O)C(N1S(=O)(=O)c1ccccc1)(c1ccccc1)c1ccccc1,-5.510975712,4.2184,392.428
,C8218,WMPXPUYPYQKQCX-UHFFFAOYSA-N,FCCN(P1(=O)NCCCO1)CCF,-1.162377904,1.6742,228.177
,C3096,WMPXZRNMBZPVIN-UHFFFAOYSA-L,OCCN1CCN(CC1)CC/C=C\1/c2ccccc2Sc2c1ccc(c2)OC.Cl.Cl,-4.992175323,5.0713,469.467
,C7353,WMSQREUDUHHDDC-UHFFFAOYSA-N,COc1ncnc(c1)NS(=O)(=O)c1ccc(cc1)N,-1.842428929,2.6032,280.303
,C6419,WMYVHJWZUUEZNE-ARWFNKCKSA-J,C[N+]1(CCCC[N+]2(C)CCOCC2)CCOCC1.[Br-].[Br-],-2.460030554,-5.3542,418.208
,C1342,WMYXMCBISNXBSE-UHFFFAOYSA-N,C=CCC1(C)C(=O)NC(=O)NC1=O,-1.16,0.5924,182.177
,C3977,WNDFVBQJYJRMQO-AFEZEDKISA-N,Cc1cc(ccc1N/N=C\1/C(=O)c2c(N)cc(cc2C=C1S(=O)(=O)[O-])S(=O)(=O)[O-])c1ccc(c(c1)C)N/N=C\1/C(=O)c2c(N)cc(cc2C=C1S(=O)(=O)[O-])S(=O)(=O)[O-].[Na+].[Na+].[Na+].[Na+],-4.121992427,7.6756,960.805
,C5469,WNFZOYNOAJBUIG-FNORWQNLSA-N,Clc1ccc(c(c1)C)C1(OC1Cl)C(=O)N,-3.05865023,2.6244,246.09
,C5193,WNGYDTQZWXGHTI-UHFFFAOYSA-N,CC1N(C)C(=N)SC1c1ccccc1.SC#N,-3.247798221,3.16448,265.398
,C6984,WNHQFWFQAJPQMC-UHFFFAOYSA-N,CCOc1ccc(cc1OC)/C=C/C(=O)NO,-2.09875357,2.0034,237.252
,C2827,WNIFZUHTATXJSM-UHFFFAOYSA-N,N#CCCC(c1nc2c(s1)nc(s2)C(CCC#N)(C)C)(C)C,-5.317650781,4.91556,332.487
,C2411,WNLRTRBMVRJNCN-UHFFFAOYSA-N,ClCCN(c1ccc(cc1)OC(=O)c1cccc(c1)F)CCCl,-5.993007278,4.3289,356.219
,C4083,WNPCZRJBOPAEFM-UHFFFAOYSA-N,CC(c1ccccc1)CNCC1CCc2c(N1)cccc2.Cl.Cl,-4.056820036,5.9395,353.329
,C1422,WNPNNLQNNJQYFA-UHFFFAOYSA-N,OC(=O)CCCCC(=O)O,-0.81999999,0.716,146.141
,C9029,WNQVHMFKZVBQGL-VMPITWQZSA-N,OS(=O)(=O)O.CCN(CCN=C(N)N)CC,-0.151105631,1.4302,256.323
,C9547,WNQXMPAEGKXDJK-UHFFFAOYSA-N,OC(C(C(=O)O)O)C(=O)O.NCC(c1ccc(c(c1)O)O)O,0.495847342,-1.3324,319.265
,C6739,WNTGYJSOUMFZEP-SSDOTTSWSA-N,CCOc1ccc(cc1)/C=C/C(=O)NO,-2.251992542,1.9948,207.226
,C3682,WOBHKFSMXKNTIM-UHFFFAOYSA-N,Clc1cnc(c(c1)Cl)SCCCCCN1CSCC1.Cl,-4.363099872,5.397,373.792
,C872,WOFQWNAHGIGDMJ-YVMONPNESA-N,OC(=O)[C@H](Oc1ccc(cc1C)Cl)C,-2.55,2.5003,214.646
,C9053,WOHKFWLAUZYPMT-JVFQMWRPSA-N,CC(=C)C(=O)OCCO,-0.114420847,0.098,130.142
,C9818,WOHNEMZGSXURTM-UHFFFAOYSA-N,ONC1=C(N=O)/C(=N\O)/CCC1,0.766607846,1.3482,171.154
,C4222,WOHPVOTWUBGVPP-UHFFFAOYSA-N,COCC(=CCN1CC[C@@]23[C@H]([C@H]1Cc1c3cc(cc1)O)CCCC2)C.Cl,-3.943969341,4.7832,377.948
,C3631,WOIGZSBYKGQJGL-UHFFFAOYSA-N,COc1ccc2c(c1)c1ccccc1n2CC[NH+](C)C.[Cl-],-4.404859349,-1.0484,304.814
,C8705,WOJATDXXHKRDIF-UHFFFAOYSA-N,OCC[NH2+]CCOc1ccccc1C.[Cl-],-0.65995556,-3.0665,231.719
,C1007,WOLHOYHSEKDWQH-UHFFFAOYSA-N,C=CCC1(C(=O)NC(=O)NC1=O)c1ccccc1,-2.1800001,1.5241,244.246
,C3929,WOMKDMUZNBFXKG-ZWKOPEQDSA-N,COc1ccccc1N1CCN(CC1)CCC(=O)c1ccc(cc1)N1CCOCC1.Cl.Cl,-4.153249021,4.5987,482.443
,C9155,WOMVICAMAQURRN-UHFFFAOYSA-N,NC12CC3CC(C2)CC(C1)C3.Cl,0.07481514,3.4162,187.71
,C4690,WOMVMPNQSSOFPY-RFVHGSKJSA-N,C[C@H]1CCC[C@@H](O1)C[C@@H]1OC(=O)c2c(C1)cc(cc2O)O,-3.612176646,2.527,292.327
,C8590,WOSDTAOMYCNNJE-UHFFFAOYSA-N,CC(c1ccc(cc1)N)C(=O)O,-0.804689247,2.0381,165.189
,C8136,WOSKONTXASGCAJ-UHFFFAOYSA-M,COc1cccc(c1OC(=O)[C@H](N1CCOCC1)C)OC.Cl,-1.239833852,2.0698,331.792
,C4912,WOUDXEYYJPOSNE-VKZDFBPFSA-N,CCNC(c1ccccc1)Cc1ccccc1.Cl,-3.447146419,4.7728,261.79
,C5224,WOVKYSAHUYNSMH-RRKCRQDMSA-N,S=C1[N-]C(=O)C2(C(=O)N1)C(C)CC(C2C)C.[Na+],-3.225678676,1.2591,262.304
,C9005,WOWVKCQUDQVBGJ-UHFFFAOYSA-M,OC[C@@]([C@@H]([C@@]12OCCC(=C)[C@@](C(=O)N1)(NC2=O)O)O)(O)C,-0.197112481,-2.6444,302.281
,C6354,WOXWUZCRWJWTRT-UHFFFAOYSA-N,OC[C@H]1O[C@H](C[C@@H]1O)n1cc(Br)c(=O)[nH]c1=O,-2.50203304,-1.0602,307.098
,C4101,WOYZXEVUWXQVNV-UHFFFAOYSA-N,CCCCCCC1(CC)C(=O)NC(=S)N=C1[O-].[Na+],-4.043184459,2.3613,278.346
,C8667,WOZGAFMPOSBQCU-UHFFFAOYSA-N,OC(=O)C1(N)CCCCC1,-0.719419862,1.4329,143.184
,C5429,WOZGBTQJZSOEEM-FNORWQNLSA-N,Nc1ccc(cc1)Oc1ccccc1,-3.080181227,3.6423,185.222
,C4458,WPDWDWXAXRTNAQ-UHFFFAOYSA-N,CCCC1(C)COB(OC1)c1ccc(cc1)C,-3.758276248,2.5434,232.126
,C3583,WPEXVRDUEAJUGY-UHFFFAOYSA-B,CCC(=O)N1C2CCC1CN(C2)C/C=C/c1ccccc1Cl,-4.458256632,3.3142,318.841
,C7675,WPFYQSJKOJNEMK-UHFFFAOYSA-N,Cn1c(=O)n(CCC)c(cc1=O)N,-1.610705204,0.1204,183.208
,C9140,WPIVWAZHVMSBHX-UHFFFAOYSA-N,[O-]P(=O)(OC1C(OP(=O)([O-])[O-])C(OP(=O)([O-])[O-])C(C(C1OP(=O)([O-])[O-])OP(=O)([O-])[O-])OP(=O)([O-])[O-])[O-].[Ca+2].[Ca+2].[Ca+2].[Ca+2].[Ca+2].[Ca+2],0.051390961,2.1258,888.408
,C8404,WPKXQUCVSYGYFP-GQCTYLIASA-N,O=C1C2C3CCC(C2C(=O)N1c1ccccc1C)O3,-0.977451928,1.7268,257.284
,C6268,WPLQCARIFVAYOT-UHFFFAOYSA-N,Nc1ccc(cc1)S(=O)(=O)Nc1nc2c(n1C)nc(nc2Cl)Cl,-2.554922272,3.7881,373.218
,C3837,WPPMCGGAMUIMJN-UHFFFAOYSA-N,CCC(=O)N1C2CCC1CN(C2)C/C=C/c1cccc(c1)[N+](=O)[O-],-4.218870505,3.0922,329.394
,C5272,WPPOGHDFAVQKLN-UHFFFAOYSA-N,N#CC(=NNc1ccc(cc1)[N+](=O)[O-])C#N,-3.184491659,2.00606,215.168
,C7393,WPRUOIPXURAXBE-UHFFFAOYSA-N,CCCC([NH+](C)C)CCC.[Cl-],-1.823261619,-1.8963,179.731
,C4870,WPTCSQBWLUUYDV-UHFFFAOYSA-N,CCCCCCCCN1CCCC1=O,-3.485615816,2.9072,197.317
,C1893,WPUGGWWDFLGUEX-UHFFFAOYSA-M,CN(CCC=C1c2cc(Br)ccc2Sc2c1cc(Br)cc2)C.Cl,-7.901328682,6.8616,475.668
,C187,WPUIZWXOSDVQJU-XYPWUTKMSA-N,c1ccc2c(c1)nc(cc2)c1ccc2c(n1)cccc2,-5.4000001,4.45,256.301
,C9623,WPWZGEGFOHKFHG-UHFFFAOYSA-M,[O-][Cl](=O)(=O)=O.CN(C=CC=CC=[N+](C)C)C,0.597403334,1.1751,252.695
,C5734,WPXOLBJHNULPQA-UHFFFAOYSA-N,CN1[C@@H]2CC[C@H]1CC(C2)OC(=O)C(=C)c1ccccc1,-2.892841031,2.8061,271.354
,C3743,WPYMKLBDIGXBTP-UHFFFAOYSA-N,CC[N+](CCOC(=O)C1c2ccccc2Oc2c1cccc2)(CC)C.[Cl-],-4.300906401,0.9578,375.889
,C6769,WQABCVAJNWAXTE-UHFFFAOYSA-N,CCCC(=O)c1ccccc1OCC(CO)O,-2.237213973,1.4014,238.28
,C1221,WQADWIOXOXRPLN-UHFFFAOYSA-N,OC(=O)c1ccccc1,-1.55,1.3848,122.121
,C9025,WQAQPCDUOCURKW-UHFFFAOYSA-N,OCC(CS)S,-0.154658287,0.2069,124.225
,C7090,WQDAVGDBWHWDSC-UHFFFAOYSA-N,C1CCSCS1,-2.041782984,1.814,120.236
,C1009,WQDGKJKVSWEERW-UHFFFAOYSA-N,CCCCS,-2.1800001,1.7163,90.1872
,C3734,WQDLJCDVQLHYOK-UHFFFAOYSA-N,O=C(c1ccccc1O)Nc1cccc(c1)C(F)(F)F,-4.309188753,3.7363,281.23
,C2640,WQEPLUUGTLDZJY-UHFFFAOYSA-N,Brc1ccc(cc1)C(c1ccccc1)OCC[NH2+]N1CCCC1.[Cl-],-5.589346738,0.0712,411.764
,C2916,WQGVORVGSUDFLT-UHFFFAOYSA-N,OC(=O)C(c1ccc2c(c1)nc(o2)c1cc(Cl)cc(c1)Cl)C,-5.206410084,4.9897,336.169
,C376,WQGWDDDVZFFDIG-UHFFFAOYSA-N,CCCCCCCCCCCCCCC(=O)O,-4.3099999,5.1622,242.398
,C7501,WQLVFSAGQJTQCK-MIRLUMJSSA-N,CCCC(COC(=O)N)(CO)CC,-1.735468118,1.9708,189.252
,C9627,WQMAANNAZKNUDL-UHFFFAOYSA-N,Oc1c(O)cccc1O,0.60425499,0.8034,126.11
,C65,WQONPSCCEXUXTQ-UHFFFAOYSA-N,C[C@H]1CC[C@@]2(OC1)O[C@@H]1[C@H]([C@@H]2C)[C@@]2([C@@H](C1)[C@@H]1CC=C3[C@]([C@H]1CC2)(C)CC[C@@H](C3)O)C,-7.3200002,5.7139,414.621
,C9415,WQOSZFNCFHKQTA-UHFFFAOYSA-N,ClCCN(C)C,0.352079789,0.7868,107.582
,C574,WQOXQRCZOLPYPM-UHFFFAOYSA-N,Brc1ccccc1Br,-3.5,3.2116,235.904
,C8294,WQUKDBHBKGMTDS-WUKNDPDISA-N,OS(=O)(=O)O.CCOC(=O)N1CCN(CC1)C(=N)N,-1.099925289,0.7578,298.317
,C1258,WQVZLXWQESQGIF-UHFFFAOYSA-N,CSSC,-1.4400001,1.6274,94.199
,C2823,WQZGKKKJIJFFOK-VFUOTHLCSA-N,CN(Cc1ccc(cc1)[N+](=O)[O-])/N=N/c1ccc(cc1)C(=O)O,-5.323868106,3.9469,314.296
,C4539,WQZUEUHQLFUVOF-UHFFFAOYSA-N,CC(CCc1ccccc1)NCC(c1ccc(c(c1)C(=O)N)O)O.Cl,-3.699410628,4.0286,364.866
,C1627,WRAGCBBWIYQMRF-UHFFFAOYSA-N,OC[C@H]1O[C@@H](O)[C@@H]([C@H]([C@@H]1O)O)O,0.74000001,-3.2214,180.156
,C8676,WRBGACYDFKHNSU-UHFFFAOYSA-N,CNC(=O)c1cc(O)ccc1O,-0.712597744,0.8483,167.162
,C7731,WRCHFMBCVFFYEQ-UHFFFAOYSA-N,CC(=O)NC1CCCCC1,-1.575846487,1.8461,141.211
,C4764,WRCITXQNXAIKLR-UHFFFAOYSA-N,O=C1Oc2c(C1(CC[NH+]1CCCCC1)c1ccccc1)cccc2.[Cl-],-3.565622149,0.9238,357.874
,C4680,WREGKURFCTUGRC-POYBYMJQSA-N,CN(CCC(c1ccccc1Cl)(c1ccccc1)O)C,-3.617812149,3.5276,289.8
,C3674,WREVVZMUNPAPOV-UHFFFAOYSA-N,OCCSCCCCCCCCCCSCCO,-4.370459254,3.5582,294.517
,C8851,WRHGKVNXGAUMGD-UHFFFAOYSA-N,Nc1ccn(c(=O)n1)[C@H]1CC[C@H](O1)CO,-0.441643715,0.0766,211.218
,C8132,WRIAZWHRIAAAMU-UHFFFAOYSA-N,Nc1cccc2c1nccc2,-1.244235554,2.3982,144.173
,C6787,WRILSPHRDWMEMQ-ONEGZZNKSA-N,O=C(Nc1ncco1)Nc1ccccc1,-2.225140471,2.4646,203.197
,C8335,WRJIIPWMHJEZHX-UHFFFAOYSA-N,CCC=C(COC(=O)N)COC(=O)N,-1.055382648,1.914,202.208
,C3836,WRJPSSPFHGNBMG-UHFFFAOYSA-N,CCC(=O)N1C2CCC1CN(C2)C/C=C/c1ccc(cc1)[N+](=O)[O-],-4.218870505,3.0922,329.394
,C3002,WRLGYAWRGXKSKG-UHFFFAOYSA-M,CCCCC(C(=O)Nc1c(C)cccc1C)N(CC)CC.Cl,-5.107886697,5.0175,326.905
,C8863,WRLTVIOYEHUKMB-UHFFFAOYSA-N,CC(=O)OC1CN2CCC1CC2,-0.428432597,0.5816,169.221
,C8338,WRMNZCZEMHIOCP-UHFFFAOYSA-N,CCC1(C(=O)NC(=NC1=O)[O-])c1ccccc1.[Na+],-1.049185548,0.5417,254.217
,C4903,WRMRXPASUROZGT-UHFFFAOYSA-N,COc1cc(ccc1OC)C1CCC2N(C1)CCCC2.Cl,-3.452553077,4.1756,311.847
,C1441,WRNWIYJRUVWHFF-UHFFFAOYSA-N,OCCc1ccccc1,-0.74000001,1.2214,122.164
,C7370,WRONACHIHQGZSD-JGAZGGJJSA-N,CCNCC(=O)Nc1c(C)cccc1C,-1.833033442,2.3153,206.284
,C9693,WROUIBGUWODUPA-UHFFFAOYSA-N,N#CCCNC(CSS(=O)(=O)O)C,0.64918428,1.88588,224.301
,C8541,WRQDGPXEQMJEKS-UHFFFAOYSA-N,CCN([C@H]([C@@H](c1ccccc1)O)C)C.Cl,-0.861564657,2.8622,229.746
,C5791,WRUCRCKOLBABNZ-UHFFFAOYSA-N,CCCC[NH2+]CC(=O)Nc1c(C)cccc1Cl.[Cl-],-2.855689199,-0.9726,291.217
,C7537,WRVLEDLJKOSANT-UHFFFAOYSA-N,OC(C(Cl)Cl)NC(=O)c1ccc(cc1)F,-1.714877983,2.0685,252.07
,C4529,WRWBCPJQPDHXTJ-DTMQFJJTSA-N,C1CSC(S1)c1c[nH]c2c1cccc2,-3.703577947,3.6465,221.342
,C5084,WRXSODAXJSKMAW-UHFFFAOYSA-N,ClCCN(c1ccc(cc1)O)CCCl,-3.324115537,2.6762,234.122
,C2348,WRYLYDPHFGVWKC-UHFFFAOYSA-N,O[C@H]1CC[C@]2(C(=CC[C@@H]3[C@@H]2CC[C@]2([C@H]3CC[C@]2(C)O)C)C1)C,-6.106061829,4.0611,304.467
,C3782,WSABIMDRSAVSKO-LFMIJCLESA-N,CS(=O)(=O)O.CS(=O)(=O)O.NC(=N)c1ccc(cc1)OCCCCCOc1ccc(cc1)C(=N)N,-4.261040335,5.6525,532.631
,C6190,WSALIDVQXCHFEG-UHFFFAOYSA-L,CC1=CCC(CC1)(O)C(C)C,-2.600971798,2.5037,154.249
,C1988,WSDISUOETYTPRL-UHFFFAOYSA-N,CN(CC/C=C\1/c2ccccc2C(c2c1cc(cc2)C(F)(F)F)(C)C)C.Cl,-7.226511069,6.5301,395.889
,C5892,WSEQLMQNPBNMSL-FJXQXJEOSA-N,Nc1cc(c(c2c1C(=O)c1c(C2=O)c(N)cc(c1O)S(=O)(=O)[O-])O)S(=O)(=O)[O-].[Na+].[Na+],-2.783978657,2.1698,474.33
,C9202,WSEQXVZVJXJVFP-UHFFFAOYSA-N,OCN1C(=O)N(C(C1=O)(C)C)CO,0.14206012,-1.1954,188.181
,C9656,WSFXVOFYKCDIFC-UHFFFAOYSA-L,CCOC(=O)CC[C@@H](C(=O)OCC)N.Cl,0.620339213,1.7224,239.697
,C4132,WSGCRAOTEDLMFQ-UHFFFAOYSA-N,N#Cc1ccc2c(c1)COC2(CCCN(C)C)c1ccc(cc1)F,-4.018458771,3.81298,324.392
,C9507,WSHBUVWBGHKXLX-UHFFFAOYSA-N,CC[N+](CCOCC[N+](CC)(C)C)(C)C.[Br-].[Br-],0.422286525,-4.7964,378.187
,C855,WSHYKIAQCMIPTB-UHFFFAOYSA-M,CCCCC(=O)CCCC,-2.5899999,2.9359,142.239
,C6693,WSKCLYSPBODMHR-UHFFFAOYSA-N,Nc1ccc(cc1)S(=O)(=O)[N-]c1scc(n1)C.[Na+],-2.27684809,4.0898,291.325
,C8365,WSLDOOZREJYCGB-UHFFFAOYSA-N,CC(=O)CC(c1c(=O)oc2c(c1[O-])cccc2)c1ccccc1.[K+],-1.00940702,4.0478,346.418
,C4064,WSORODGWGUUOBO-UHFFFAOYSA-N,OC(=O)C1CCc2c1cc(O)c(c2)C1CCCCC1,-4.067224377,3.5543,260.328
,C1362,WSPOMRSOLSGNFJ-AUWJEWJLSA-N,ClCCCl,-1.0599999,1.464,98.9592
,C7656,WSPOMRSOLSGNFJ-VGOFMYFVSA-N,CCOC(=O)CC(C(=O)OCC)SP(=O)(OC)OC,-1.622267918,2.0054,314.292
,C1669,WSSSPWUEQFSQQG-UHFFFAOYSA-N,CN(CC/C=C\1/c2ccccc2Sc2c1cc(Cl)cc2)C	,-6.75 ,5.188,315.86
,C2397,WSWCOQWTEOXDQX-MQQKCMAXSA-N,CN(CC/C=C/1\c2ccccc2Sc2c1cc(Cl)cc2)C,-6.029671254,5.188,315.86
,C645,WSWJIZXMAUYHOE-UHFFFAOYSA-N,C=CCC(C)C,-3.24,2.2185,84.1595
,C1148,WSYUEVRAMDSJKL-UHFFFAOYSA-N,C/C=C/C=C/C(=O)O,-1.77,1.2033,112.127
,C1035,WSYXBHSXXTWQIB-UHFFFAOYSA-N,COCCOc1c(OC)cc(cc1OC)Cc1cnc(nc1N)N,-2.0999999,2.4366,334.37
,C9875,WTBBQSREXFAQOR-UHFFFAOYSA-N,NCCOS(=O)(=O)O,0.850346779,0.5456,141.146
,C4453,WTDRDQBEARUVNC-LURJTMIESA-N,CC[NH+](CCOC(=O)C1CCCc2c1cccc2)CC.[Cl-],-3.759946476,-1.4216,311.847
,C3089,WTDRDQBEARUVNC-ZCFIWIBFSA-N,NS(=O)(=O)O.CCOC(=O)N(c1ccccc1)C(CN1CCC(CC1)(O)c1ccccc1)C,-5.00417833,4.4885,479.59
,C1703,WTEVQBCEXWBHNA-JXMROGBWSA-N,OC(=O)[C@H](Cc1ccc(c(c1)O)O)N	,-1.82 ,0.7525,197.188
,C1203,WTGJGWJJJOCUQE-UHFFFAOYSA-N,OC(=O)[C@@H](Cc1ccc(c(c1)O)O)N,-1.6,0.7525,197.188
,C1052,WTGQALLALWYDJH-WYHSTMEOSA-N,O=C/C=C(\CCC=C(C)C)/C,-2.0599999,2.878,152.233
,C7259,WTJBNMUWRKPFRS-UHFFFAOYSA-N,C=CCOc1ccccc1OCC(CO)O,-1.920991791,0.9834,224.253
,C9267,WTLJHBLVUSNPSV-UHFFFAOYSA-N,OC[C@H](c1ccccc1)C(=O)OC1C[C@@H]2N([C@H](C1)[C@@H]1[C@H]2O1)C.Br,0.23883776,1.8141,384.265
,C7758,WTPDKEAYVAXNRO-UHFFFAOYSA-N,CCOC(=O)C1(CCN(CC1)C)c1cccc(c1)O,-1.562697122,1.8566,263.332
,C6662,WTUNGUOZHBRADH-UHFFFAOYSA-N,CCOC(=O)C(=O)N1CC=Cc2c1cccc2,-2.303385798,1.6745,231.247
,C7047,WTYDEBIGLNBNNF-UHFFFAOYSA-N,COc1cc(ccc1OC(=O)C)C(=O)O,-2.060150629,1.3187,210.183
,C8898,WTYGAUXICFETTC-UHFFFAOYSA-N,COP(=O)(SC)OC,-0.376202171,1.7503,156.141
,C4992,WUAAJHKTLJWUPX-UHFFFAOYSA-N,CSc1c(Cl)nc(nc1N1CCN(CC1)C)Nc1ccccc1,-3.391632027,3.4232,349.882
,C1011,WUBBRNOQWQTFEX-UHFFFAOYSA-N,CCC1(C2=CCCCC2)C(=O)NC(=O)NC1=O,-2.1700001,1.9068,236.267
,C5547,WUESWDIHTKHGQA-UHFFFAOYSA-N,CCCCC(COC(=O)NNC(C)C)(CO)C,-3.014977372,2.5962,246.346
,C1698,WUFRNEJYZWHXLC-CTERPIQNSA-M,CC(=O)Nc1nnc(s1)S(=O)(=O)N	,-2.44 ,0.998,222.245
,C8124,WUMKGWMLMOYKPD-UHFFFAOYSA-N,NC(=O)NC1CCCCC1,-1.247109824,2.0786,142.199
,C9731,WUORSSYNZWHFQY-UHFFFAOYSA-N,O[C@@H]1C[C@H](O[C@H]1C)C[N+](C)(C)C.[Cl-],0.678372576,-2.7651,209.714
,C4459,WUQMRWPLIMXBDX-UHFFFAOYSA-N,CCCCN1CCC(CC1)(CCCC)OC(=O)C.Cl,-3.756753663,4.1143,291.857
,C8665,WUQYKHRMHJGLAI-UHFFFAOYSA-N,OS(=O)(=O)O.CNC(Cc1ccc(cc1)O)C.CNC(Cc1ccc(cc1)O)C,-0.719773373,4.295,428.543
,C8918,WURBVZBTWMNKQT-UHFFFAOYSA-N,CN(CCc1c[nH]c2c1ccc(c2)O)C,-0.352603659,1.9776,204.268
,C7374,WURBVZBTWMNKQT-ZDUSSCGKSA-N,Nc1ccc(cc1)C(=O)Nc1ncccc1C,-1.831491572,2.8787,227.262
,C4687,WUSAVCGXMSWMQM-UHFFFAOYSA-N,O=C(C(C)(C)C)C(n1ncnc1)Oc1ccc(cc1)Cl,-3.613673327,3.1243,293.749
,C546,WUUPKSODGWXAMQ-UHFFFAOYSA-N,O=C(C(C)(C)C)[C@@H](n1ncnc1)Oc1ccc(cc1)Cl,-3.6099999,3.1243,293.749
,C3142,WUWHFEHKUQVYLF-UHFFFAOYSA-M,CCCCN(C(c1ccc(cc1)OC)C(=O)N)CCCC,-4.929579352,3.8241,292.416
,C3574,WUWWFJGGMGKQML-UHFFFAOYSA-N,COc1ccc2c(c1)N(CCN(C(C)C)C(C)C)C(=O)CCC2,-4.465629757,3.5483,318.454
,C9922,WUXLCJZUUHIXFY-FFHNEAJVSA-N,[O-]C(=O)CN.[Na+],1.013008917,-1.6047,97.0484
,C6742,WVADYUOPJSVCLD-UHFFFAOYSA-M,OCC(COc1ccc(cc1)CC)O,-2.251408128,0.981,196.243