Name,Compound ID,InChIKey,SMILES,logS,logP,MW
,C6524,BXUMMYJTNLBPAN-UHFFFAOYSA-N,OCNC(=O)C1=C(O)[C@@]2([C@H]([C@@H](C1=O)N(C)C)C[C@H]1C(=C(O)c3c([C@@]1(C)O)c(Cl)ccc3O)C2=O)O,-2.393193899,0.254,508.906
,C3491,BXUSEVHVYZZWLZ-UHFFFAOYSA-N,O=C(c1ccccc1)CCC[NH+]1CCC(=CC1)c1ccccc1.[Cl-],-4.54353357,1.5949,341.874
,C6003,BXWNKGSJHAJOGX-UHFFFAOYSA-N,OCC(c1ccccc1)(c1ccccc1)COC(=O)N,-2.712489678,2.7606,271.311
,C71,BXXVTBZNDMLJMK-UHFFFAOYSA-N,CCCCCCCCCCCCCCCCO,-7.2600002,5.46,242.441
,C5639,BXZVVICBKDXVGW-NKWVEPMBSA-N,COc1ccccc1N1CCN(CC1)CC(COc1ccccc1C(=O)C)O.Cl.Cl,-2.951018603,4.0666,457.391
,C8209,BYBLEWFAAKGYCD-UHFFFAOYSA-N,OC[C@@H]1CC[C@@H](O1)n1cnc2c1[nH]cnc2=O,-1.174679801,-0.2105,236.227
,C1932,BYBUKOLWVLGTJF-UHFFFAOYSA-N,Clc1ccc(c(c1)Cl)COC(c1ccc(cc1Cl)Cl)Cn1cncc1,-7.57233652,6.4548,416.129
,C5862,BYCNQOVVSOKZEP-UHFFFAOYSA-N,CC(Cc1ccccc1)NNC(=O)c1noc(c1)C,-2.803157411,2.6304,259.304
,C8515,BYDMLFDOUPNUJD-UHFFFAOYSA-M,[O-][N+](=O)c1cccnc1OCCCNCCSS(=O)(=O)O,-0.881696286,2.8792,337.373
,C4964,BYEFHDZWRALTEN-UHFFFAOYSA-N,CCCC(CCC1(C)OC(=O)[N-]C1=O)C.[Na+],-3.407286616,2.3425,235.255
,C9510,BYERQZBUECJLQD-UHFFFAOYSA-M,CCC12COP(=O)(OC1)OC2,0.425055927,1.5679,178.123
,C5642,BYEVBITUADOIGY-UHFFFAOYSA-N,CC[N+](CCOCCC1CCC2CC1C2(C)C)(CC)C.[I-],-2.949385763,0.9558,409.389
,C494,BYFMCKSPFYVMOU-UHFFFAOYSA-N,CCCCCCCCC(=O)OCC,-3.8,3.3001,186.291
,C4238,BYHDDXPKOZIZRV-UHFFFAOYSA-N,OC(=O)COc1nn(c2c1cccc2)Cc1ccccc1,-3.934041796,2.548,282.294
,C6414,BYJAVTDNIXVSPW-UHFFFAOYSA-N,OC(=O)CCCCc1ccccc1,-2.465653409,2.484,178.228
,C4394,BYJLFUFCSNYZLF-UHFFFAOYSA-N,C1CN=C(N1)C1CCCc2c1cccc2,-3.809027703,1.8726,200.28
,C7038,BYNNMWGWFIGTIC-UHFFFAOYSA-N,COc1cc(cc(c1OC)OC)S(=O)(=O)CCN1CCCCC1,-2.062653425,2.9907,343.438
,C6309,BYPFEZZEUUWMEJ-UHFFFAOYSA-N,OCC(COc1cccc2c1cccc2)O,-2.531423204,1.5718,218.248
,C1708,BYPIURIATSUHDW-JTQLQIEISA-N,CC(=O)CCCCn1c(=O)c2n(C)cnc2n(c1=O)C	,-0.56 ,0.193,278.307
,C711,BYQOKNIMGIDSHN-UHFFFAOYSA-N,ONC(=O)[C@H](c1ccc(cc1)CC(C)C)C,-3.04,2.8849,221.295
,C8000,BYTVUZSLDOOEOJ-UHFFFAOYSA-N,[O-][N+](=O)c1c(Cl)ncn1C,-1.359304314,1.5049,161.546
,C2188,BYUOBSUZYQAFJM-UHFFFAOYSA-N,c1ccc(cc1)C(c1ccccc1)(c1ccccc1)CCN1CCN(CC1)c1cnccn1,-6.51750281,5.0262,434.575
,C5628,BYVXYEQOFCJKRP-UHFFFAOYSA-M,O=c1[nH]c2c([nH]1)[nH]cnc2=O,-2.959449889,-1.0605,152.111
,C4337,BYWIEEUABBZFEE-UHFFFAOYSA-N,C[N+](Cc1ccccc1)(CCOCCC1CCC2CC1C2(C)C)C.[Br-],-3.851321841,1.746,410.431
,C3465,BYWZDRVDOARNLV-WQLSENKSSA-N,CCN(CCOc1ccccc1C(=O)CCc1ccccc1)CC.Cl,-4.567817892,5.0247,361.906
,C7565,BYYMILHAKOURNM-VIFPVBQESA-N,Cc1ccc(cc1)C(=O)/C=N\N(C)C,-1.69611676,1.7251,190.242
,C473,BZGIPVGCJGXQTA-UHFFFAOYSA-N,C[C@H](N(C(=O)Nc1ccc(cc1)Cl)C)C#C,-3.9000001,2.8984,236.697
,C5285,BZHJMEDXRYGGRV-UHFFFAOYSA-N,CCN(CCSC(=O)N(c1ccccc1)c1ccccc1)CC,-3.173880957,5.0197,328.472
,C1155,BZHKRGITPPRQFR-UHFFFAOYSA-N,ClC=C,-1.75,1.3687,62.4982
,C6697,BZHMBWZPUJHVEE-UHFFFAOYSA-N,CCCCCCC(NCCSS(=O)(=O)O)CC,-2.273491868,4.3327,283.451
,C386,BZKPWHYZMXOIDC-UHFFFAOYSA-N,CC(CC(C)C)C,-4.2600002,2.6885,100.202
,C943,BZLVMXJERCGZMT-UHFFFAOYSA-N,CC(=O)Nc1nnc(s1)S(=O)(=O)N,-2.3599999,0.998,222.245
,C1526,BZMOMWMLUGUGGX-UHFFFAOYSA-N,COC(C)(C)C,-0.23999999,1.4313,88.1482
,C4959,BZNDWPRGXNILMS-MNDMWVCDSA-N,CCN1CCC(C1)OC(=O)Nc1c(C)cccc1C,-3.414564661,2.957,262.347
,C591,BZQRMOJOFMIRFL-UHFFFAOYSA-N,CCN[P@](=S)(O/C(=C/C(=O)OC(C)C)/C)OC,-3.4100001,3.3803,281.309
,C3402,BZRYYBWNOUALTQ-HOTGVXAUSA-N,CCC(C(c1cccc2c1cccc2)(C(=O)N)CCN(C)C)C,-4.629686284,4.261,312.449
,C4419,BZTYNSQSZHARAZ-UHFFFAOYSA-N,CCN(CCOCCC1=CC[C@H]2C[C@@H]1C2(C)C)CC,-3.789188563,3.7273,265.434
,C129,BZXAWUTXKYHQAW-UHFFFAOYSA-N,Clc1ccc(cc1)c1ccc(cc1Cl)Cl,-6.21,5.3138,257.543
,C3401,CAANODYIPBBLNZ-UHFFFAOYSA-N,CCN(CCC(c1cccc2c1cccc2)(C(=O)N)C(C)C)C,-4.629686284,4.261,312.449
,C2989,CADKCVKDIVHZRB-UHFFFAOYSA-N,OC(=O)COc1ccc(c(c1Cl)Cl)Cc1cccs1,-5.124728824,4.1091,317.188
,C6507,CADMHCMDZLBQLA-UHFFFAOYSA-N,CNCC(C1CCCCC1)C.Cl,-2.404197723,3.6151,191.741
,C8797,CAEPIUXAUPYIIJ-UHFFFAOYSA-N,NC(=O)OCCOCCOC(=O)N,-0.515790257,0.5942,192.17
,C9636,CAJIGINSTLKQMM-UHFFFAOYSA-N,CC[N+](c1cccc(c1)O)(C)C.[Br-],0.608803706,-1.017,246.144
,C5656,CAMYKONBWHRPDD-UHFFFAOYSA-N,CCCOc1cc(N)ccc1C(=O)OCCN(CC)CC,-2.942591138,3.1374,294.389
,C6839,CANCCLAKQQHLNK-UHFFFAOYSA-N,NC(=O)OCCCc1ccccc1,-2.182607563,2.4148,179.216
,C1995,CAQICVDDBQWJMA-UHFFFAOYSA-L,Cc1cccc(c1)N(C(=S)Oc1ccc2c(c1)C1CCC2C1)C,-7.17737408,5.1598,323.452
,C2199,CARJCVDELAMAEJ-UHFFFAOYSA-N,C[N+]1(CCCCCCCCCC[N+]2(C)CCCC2)CCCC1.[I-].[I-],-6.486753046,-1.4864,564.37
,C7316,CATSNJVOTSVZJV-UHFFFAOYSA-N,CC1SCCS1,-1.87588564,1.8124,120.236
,C1262,CAVQBDOACNULDN-KHFUBBAMSA-N,CCCCCC(=O)C,-1.42,2.1557,114.185
,C8619,CAZAGSKJTOEERZ-PDGQHHTCSA-N,OS(=O)(=O)O.CN[C@H]([C@@H](c1ccccc1)O)C.CN[C@H]([C@@H](c1ccccc1)O)C,-0.777689387,3.8656,428.543
,C5006,CAZLTUGTURHFIJ-UHFFFAOYSA-N,O=C(CN1CCN(CC1)c1ccccc1)N/N=C\c1ccc(o1)[N+](=O)[O-],-3.382856377,2.3771,357.364
,C6594,CBCKQZAAMUWICA-UHFFFAOYSA-N,CCN1CCN(CC1C(=O)Nc1ccccc1C)CC.ON=O.ON=O,-2.347414667,2.1923,369.416
,C1514,CBEIBWVAIGYFLV-UHFFFAOYSA-N,Nc1ccc(cc1)N,-0.38,2.0134,108.141
,C5816,CBEPLVOEOHUBOH-UHFFFAOYSA-N,CCN(CCN1C(=O)CC(CC1=O)(CC)CC)CC.Cl,-2.838676766,3.0235,304.856
,C5798,CBEQULMOCCWAQT-WOJGMQOQSA-N,CCC(=O)c1ccc(cc1)OCC(CNCCc1ccccc1)O,-2.851409598,3.2422,327.417
,C4758,CBFCDTFDPHXCNY-UHFFFAOYSA-N,Cc1ccc(cc1)/C(=C\CN1CCCC1)/c1ccccn1,-3.570417833,3.8554,278.391
,C32,CBGDIJWINPWWJW-IYSWYEEDSA-N,CCCCCCCCCCCCCCCCCCCC,-8.1700001,8.048,282.547
,C8080,CBGUOGMQLZIXBE-XGQKBEPLSA-N,C[C@H]1OC=C2C(=C(C)C(=C(C2=O)C(=O)O)O)[C@@H]1C,-1.288458223,1.721,250.247
,C3019,CBHCDHNUZWWAPP-HNNXBMFYSA-N,CCC(=O)O[C@@]1([C@@H](C)C[C@@H]2[C@]1(C)C[C@H](O)[C@]1([C@H]2CCC2=CC(=O)C=C[C@]12C)F)C(=O)CCl,-5.082592899,4.1031,466.97
,C278,CBHCDHNUZWWAPP-UHFFFAOYSA-N,CN1CCC[C@@H](C1)CN1c2ccccc2Sc2c1cccc2,-4.7399998,4.634,310.456
,C3292,CBKQWIBXFHHUHD-UHFFFAOYSA-M,CN1CCCC(C1)CN1c2ccccc2Sc2c1cccc2,-4.744747871,4.634,310.456
,C9544,CBRSBDUOPJQVMP-UHFFFAOYSA-N,CCOC(=O)C1CC2CC[N+]1(C)CC2.[I-],0.487862818,-1.8588,325.186
,C7654,CBUUEQJKUQEIID-LFIBNONCSA-N,CC(NC(=O)N)CC,-1.624792345,1.5444,116.162
,C3868,CBXCPBUEXACCNR-UHFFFAOYSA-N,CCCCN(CC(=O)N/N=C/c1ccc(o1)[N+](=O)[O-])CCCC,-4.192992087,3.4542,324.375
,C9890,CBXMULHQEVXJDI-UHFFFAOYSA-N,CC[N+](CC)(CC)CC,0.885205597,1.8828,130.251
,C6417,CCDDAZAJRNNGBK-UHFFFAOYSA-N,C1COc2c(OC1)cccc2,-2.460600081,1.8479,150.175
,C2702,CCEXTQVHYYYTOI-UHFFFAOYSA-N,COc1c(CNCC2CCC(CC2)CNCc2cccc(c2OC)OC)cccc1OC.Cl.Cl,-5.502727126,6.7926,515.513
,C5410,CCGBIMUGLRDVOC-UHFFFAOYSA-N,CCC1(C(=O)NC(=O)N=C1OC(C)C)c1ccccc1,-3.097020865,2.1721,274.315
,C6424,CCGBNUKHCLUUFX-UHFFFAOYSA-N,COc1ccc(cc1)C(=O)CCN1CCCCC1.Cl,-2.45824931,3.4938,283.794
,C5668,CCGPUGMWYLICGL-UHFFFAOYSA-N,O=c1occ([nH]1)c1ccc2c(c1)cccc2,-2.935568954,2.7881,211.216
,C272,CCHMTZLZEZOPMO-UHFFFAOYSA-N,CCCCN(C(=O)Nc1ccc(c(c1)Cl)Cl)C,-4.77,4.3302,275.174
,C8632,CCWOKFNOLILVKD-UHFFFAOYSA-N,CCNC(=O)Nc1ncco1,-0.76263658,1.2799,155.155
,C3771,CCXTXXIACARUTI-UHFFFAOYSA-N,COC1C=Cc2c(N1C(=O)OC(C)C)cccc2,-4.272639666,3.1023,247.29
,C7203,CCZLMCQIVCOCNB-UHFFFAOYSA-M,CCCC(COC(=O)Nc1ccc(cc1)OCC)(COC(=O)Nc1ccc(cc1)OCC)C,-1.956383464,6.2336,458.547
,C5566,CDAISMWEOUEBRE-CDRYSYESSA-N,CCCCC1(CC)C(=O)NC(=NC1=O)[S-].[Na+],-3.003995305,0.8967,250.293
,C1589,CDAWCLOXVUBKRW-UHFFFAOYSA-N,O[C@@H]1[C@@H](O)[C@H](O)[C@H]([C@@H]([C@H]1O)O)O,0.34999999,-3.8346,180.156
,C1444,CDBZVPAISMFCEH-UHFFFAOYSA-N,Nc1ccccc1O,-0.72000003,1.5556,109.126
,C4404,CDCHDCWJMGXXRH-UHFFFAOYSA-N,C#CC1(O)c2ccccc2CCc2c1cccn2,-3.802222177,2.0493,235.281
,C2841,CDCOFPQIYLPBRQ-UHFFFAOYSA-N,Clc1ccc2c(c1)C(=NCc1n2cnn1)c1ccccc1,-5.294510433,2.7073,294.738
,C3961,CDFAMYXWTIOYGP-UHFFFAOYSA-N,CCN1CCCC(C1)OC(=O)Nc1ccc(cc1)Br,-4.131027102,3.4928,327.217
,C3462,CDJOTXFFSDDYFI-SVXKRPBISA-N,CN(CCCC12CC3CC(C1)CC(C2Br)C3)C.Cl,-4.572572496,4.72,336.739
,C2084,CDMRYARHYKNFLS-UHFFFAOYSA-N,CCCC[NH+](C(=N)c1ccc(c2c1cccc2)OCC)CCCC.[Cl-],-6.853973504,1.1527,362.937
,C8225,CDOSHBSSFJOMGT-SNVBAGLBSA-N,CCCC(C(=O)N)(C)C,-1.1541444,1.9983,129.2
,C1074,CDOZDBSBBXSXLB-UHFFFAOYSA-N,C=C[C@](CCC=C(C)C)(O)C,-1.99,2.6698,154.249
,C2605,CDPKJZJVTHSESZ-UHFFFAOYSA-N,CCN(C(CN1c2ccccc2Sc2c1cccc2)C)CC,-5.654395513,5.0846,312.472
,C7333,CDUYSGJRDZEJPK-UHFFFAOYSA-N,OC(=O)Cc1ccc(cc1)Cl,-1.861445571,1.9671,170.593
,C7107,CDVQLCYIDGFKKI-UHFFFAOYSA-N,CC(=O)c1ccc(cc1)OC(C(=O)O)(C)C,-2.032955028,2.1312,222.237
,C3497,CEAZRRDELHUEMR-UHFFFAOYSA-N,CC(Cc1ccccc1)NNC(=O)C(c1ccccc1)(c1ccccc1)O,-4.539820125,3.9563,360.449
,C9375,CEBKHWWANWSNTI-UHFFFAOYSA-N,CNC(C1CCC(C(O1)OC1C(N)CC(C(C1O)OC1OCC(C(C1O)NC)(C)O)N)N)C,0.320932954,-0.4448,477.595
,C9931,CEEQUQSGVRRXQI-UHFFFAOYSA-N,C#CC(O)(C)C,1.075111082,0.3905,84.1164
,C8010,CEFMMQYDPGCYMG-UHFFFAOYSA-N,O=Cc1c(COP(=O)(O)O)cnc(c1O)C.O,-1.346864275,0.4531,265.157
,C6491,CEJGGHKJHDHLAZ-UHFFFAOYSA-M,OC(=O)c1c(C)cccc1Cl,-2.418644602,2.3466,170.593
,C6766,CEKKEXXOXOUODW-UHFFFAOYSA-N,CCC(C(c1ccccc1)C(=O)OCC[N+](CC)(CC)C)C.[Br-],-2.239092696,0.8499,386.367
,C3917,CEMAWMOMDPGJMB-UHFFFAOYSA-N,C[NH+](CCCC1(C[NH+](c2c1cccc2)C)c1ccccc1)C.[Cl-].[Cl-],-4.163688961,-3.3656,367.356
,C7258,CEOCDNVZRAIOQZ-UHFFFAOYSA-N,C=CCOc1ccccc1OCC(CNC(C)C)O,-1.921123827,2.38,265.348
,C166,CEPUEFFXFOOTDZ-UHFFFAOYSA-N,Clc1cc(Cl)c(c(c1Cl)Cl)Cl,-5.6500001,4.9536,250.337
,C5530,CEQUUCYPMIWLLU-UHFFFAOYSA-N,CCNS(=O)(=O)c1ccc(cc1)Br,-3.020428684,3.219,264.139
,C4299,CERQOIWHTDAKMF-UHFFFAOYSA-N,O=C(Nc1c(C)cccc1C)OC1CCN(C1)C(C)C,-3.873304888,3.3455,276.374
,C1564,CERQYUUAGZXWKV-UHFFFAOYSA-N,CC(=C)C(=O)O,0.0099999998,0.6471,86.0892
,C8671,CERUVRSAHAFOLZ-LAWPZHMJSA-N,COc1cc(ccc1OC)CC(N)C.Cl,-0.716603509,3.0958,231.719
,C2599,CESYKOGBSMNBPD-UHFFFAOYSA-N,O=C1OCC(=C1)[C@H]1CC[C@]2([C@]1(C)CCC1C2CC[C@H]2[C@]1(C)CC[C@@H](C2)O[C@H]1C[C@H](O)[C@@H]([C@H](O1)C)O[C@H]1C[C@H](O)[C@@H]([C@H](O1)C)O)O,-5.661505624,3.3663,634.797
,C3527,CETBSQOFQKLHHZ-UHFFFAOYSA-N,ClCC1Nc2cc(Cl)c(cc2S(=O)(=O)N1C)S(=O)(=O)N,-4.506192888,3.5361,360.237
,C915,CETWDUZRCINIHU-SSDOTTSWSA-N,CCSSCC,-2.4200001,2.4076,122.252
,C1220,CEUUNELRXHVARR-UHFFFAOYSA-N,CCCCC[C@H](O)C,-1.55,1.9475,116.201
,C2326,CEZZCJWBLHCTMD-SEYXRHQNSA-N,C1CCC(CC1)CNC1CCC(CC1)NCC1CCCCC1.CC(=O)O.CC(=O)O,-6.155847342,5.601,426.633
,C5287,CFAPPJQXJQUYNZ-AUUXLREUSA-N,CCOC(=O)CCn1c(=N)oc2c1cccc2,-3.173789217,1.7667,234.251
,C2147,CFASZFVMLVOUHC-UHFFFAOYSA-M,COC(=O)CCN1CCN(CC1)CC/C=C/1\c2ccccc2Sc2c1cc(Cl)cc2.Cl.Cl,-6.663362683,6.2869,515.923
,C8534,CFBQYWXPZVQQTN-QPTUXGOLSA-N,COc1ccc(cc1C(C[N+](C)(C)C)C)OC.[Cl-],-0.868061104,-0.4825,273.799
,C2528,CFBYEGUGFPZCNF-UHFFFAOYSA-N,Oc1ccc2c(c1)[C@]13CCCC[C@H]3[C@@H](C2)N(CC1)CCc1ccccc1,-5.781894133,4.6312,347.493
,C1086,CFCUWKMKBJTWLW-BKHRDMLASA-N,COc1ccccc1[N+](=O)[O-],-1.96,2.1266,153.135
,C8539,CFEPSQISKFBCRD-UHFFFAOYSA-N,CO[C@@H]([C@@H]1Cc2cc3cc(O[C@@H]4O[C@H](C)[C@H]([C@@H](C4)O[C@H]4C[C@@H](O)[C@@H]([C@H](O4)C)O)O)c(c(c3c(c2C(=O)[C@H]1O[C@@H]1O[C@H](C)[C@H]([C@@H](C1)O[C@@H]1O[C@H](C)[C@@H]([C@@H](C1)O[C@@H]1O[C@H](C)[C@H]([C@@](C1)(C)O)O)O)O)O)O)C)C(=O)[C@H]([C@H](O)C)O,-0.862597478,-0.2493,1085.15
,C9799,CFFBLPKCMVYPLU-UHFFFAOYSA-N,CNC(C(c1ccccc1O)O)C,0.741757928,1.4244,181.232
,C8075,CFKMVGJGLGKFKI-UHFFFAOYSA-N,NC1=NCC(O1)CN1CCN(CC1)c1ncccn1,-1.293019962,-0.5491,262.311
,C1211,CFLMLQJYYALAPD-UHFFFAOYSA-N,Oc1ccc(c(c1)C)Cl,-1.5700001,2.354,142.583
,C7623,CFOYWRHIYXMDOT-UHFFFAOYSA-N,CCOc1ccc(c(c1)O)NC(=O)C,-1.643136889,1.8223,195.215
,C8823,CFPOQCPZKHPNPN-WJDWOHSUSA-N,CCOC(=O)n1ccn(c1=S)C,-0.473056921,1.5607,186.231
,C6064,CFRFHWQYWJMEJN-UHFFFAOYSA-N,CCCCN1CCN(CC1)CC(=O)N/N=C\c1ccc(o1)[N+](=O)[O-],-2.67563934,1.8455,337.374
,C3729,CFSMWCPJTYADHU-UHFFFAOYSA-N,Nc1ccc2c(c1)Cc1c2cccc1,-4.31500216,3.4212,181.233
,C6625,CFVWNXQPGQOHRJ-UHFFFAOYSA-N,FCCCCCCC#N,-2.331592031,2.42998,129.175
,C1329,CFWATMFTYGZZAF-UHFFFAOYSA-N,C=CC(=O)OCC(C)C,-1.21,1.3716,128.169
,C4686,CFXQEHVMCRXUSD-UHFFFAOYSA-N,C[NH+]1CCc2c(C1CCc1ccc(cc1)Cl)cc(c(c2)O)O.[Cl-],-3.614332452,1.0691,354.271
,C1098,CFZVHPKDNFUKEV-UHFFFAOYSA-N,ClCC(CCl)Cl,-1.92,2.0714,147.431
,C3408,CGBCCZZJVKUAMX-RYNAEJSDSA-N,OCC(c1ccc2c(c1)nc(o2)c1ccccc1)C.OCC(c1ccc2c(c1)nc(o2)c1ccccc1)C.OCC(c1ccc2c(c1)nc(o2)c1ccccc1)C.OCC(c1ccc2c(c1)nc(o2)c1ccccc1)C.O,-4.624184822,14.2981,1031.2
,C241,CGDSFZBQGDHARN-UHFFFAOYSA-N,O=C1C=C[C@]2(C(=C1)C(=C[C@@H]1[C@@H]2CC[C@]2([C@H]1CC[C@@]2(OC(=O)C)C(=O)C)C)Cl)C,-4.9499998,4.5277,402.911
,C2951,CGFFKDRVHZIQHL-UHFFFAOYSA-N,OC(=O)C(=O)O.CCC(=O)N(CC(N1CCC(CC1)(O)c1ccccc1)C)Cc1ccccc1.CCC(=O)N(CC(N1CCC(CC1)(O)c1ccccc1)C)Cc1ccccc1,-5.160602254,6.626,851.081
,C7994,CGHIBGNXEGJPQZ-UHFFFAOYSA-N,C=CC(NC(=S)NNC(=S)NC)C,-1.365537735,1.5975,218.343
,C938,CGIGDMFJXJATDK-UHFFFAOYSA-N,CCCCC#C,-2.3599999,1.8098,82.1436
,C305,CGJFGPQHBSLGOO-UHFFFAOYSA-N,COc1ccc2c(c1)c(CC(=O)O)c(n2C(=O)c1ccc(cc1)Cl)C,-4.6199999,3.9273,357.788
,C4639,CGJVQYXNMYLDBV-UHFFFAOYSA-N,OC(=O)Cc1ccc2c(c1)nc(s2)c1ccccc1,-3.646361785,3.5904,269.318
,C2070,CGMJQQJSWIRRRL-UHFFFAOYSA-N,CCC(C(c1ccccc1)(c1ccccc1)CC([NH+](C)C)C)OC(=O)c1ccccc1.[Cl-],-6.913232985,1.5354,452.028
,C3466,CGOUFDAVNKYPMT-UHFFFAOYSA-N,O=C1CN=C(c2c(N1)ccc(c2)Br)c1ccccc1Cl,-4.567419831,3.4656,349.61
,C3149,CGRCGRBHNKRILW-JQIJEIRASA-N,OC(=O)C(c1ccc2c(c1)nc(o2)c1ccc(cc1)C(F)(F)F)C,-4.921184198,4.7017,335.277
,C7462,CGRKCGWEOIQFRD-UHFFFAOYSA-N,O=C1O/C(=C\2/C(=O)Oc3c2cccc3)/C(=C1c1ccccc1)O,-1.765949423,2.8428,306.269
,C9126,CGWKQCYAMPDEGC-UHFFFAOYSA-N,Nc1ccc(cc1)S(=O)(=O)[NH-].[Na+],0.019282573,2.6717,194.187
,C7856,CGYGETOMCSJHJU-UHFFFAOYSA-N,BrC1CS(=O)(=O)CC1Br,-1.487330615,2.0226,277.962
,C422,CHACKLOZIYSBHC-BTJKTKAUSA-N,Clc1ccc2c(c1)cccc2,-4.1399999,3.4932,162.616
,C3170,CHBKPOAEXQUKHL-UHFFFAOYSA-N,OC(=O)/C=C\C(=O)O.CNCC1COC2(O1)c1ccccc1C=Cc1c2cccc1,-4.901225018,3.109,409.432
,C7484,CHBRHODLKOZEPZ-UHFFFAOYSA-N,CC(=O)OCN([N+](=O)[O-])CN([N+](=O)[O-])CN([N+](=O)[O-])COC(=O)C,-1.747884069,-0.0067,354.231
,C3809,CHCWSQPFKCUFSC-UHFFFAOYSA-N,CCc1sc2c(c1)C(=NCC(=O)N2C)c1ccccc1Cl,-4.240855851,3.2783,318.821
,C6027,CHDCOQRRIRGECX-UHFFFAOYSA-N,Brc1cccc(n1)OCCCCCNCCSS(=O)(=O)O,-2.697144508,3.9905,399.324
,C5891,CHFUHGDBYUITQJ-UHFFFAOYSA-L,OS(=O)(=O)SCCNCCCCCCc1ccccc1,-2.784854038,4.3868,317.467
,C9628,CHHHXKFHOYLYRE-STWYSWDKSA-M,OCC(COP(=O)([O-])[O-])O.[K+].[K+],0.605105477,-0.6747,248.254
,C9863,CHIFCDOIPRCHCF-UHFFFAOYSA-N,C/C=C/C=C/C(=O)[O-].[K+],0.823278025,-0.1314,150.217
,C3991,CHLMFHKZCVSJIJ-VAWYXSNFSA-N,O=C1CN=C(c2c(N1)ccc(c2)Cl)c1ccccc1Cl,-4.115680239,3.3565,305.159
,C5377,CHMBIJAOCISYEW-UHFFFAOYSA-N,CCN(CCCOC(=O)/C=C/c1ccccc1)CC,-3.111896044,2.9749,261.359
,C1377,CHNUNORXWHYHNE-UHFFFAOYSA-N,CC(=O)Nc1ccc(cc1)N,-0.98000002,1.8814,150.178
,C160,CHNXZKVNWQUJIB-VPXZLSIOSA-N,CC(Oc1cc(c(cc1Cl)Cl)n1nc(oc1=O)C(C)(C)C)C,-5.6900001,4.217,345.221
,C165,CHOBRHHOYQKCOU-UHFFFAOYSA-N,C#C[C@@]1(O)CC[C@@H]2[C@]1(C)CC[C@H]1[C@H]2CCC2=CC(=O)CC[C@]12C,-5.6599998,3.8826,312.446
,C5809,CHQGYMXXKZPWOI-UHFFFAOYSA-N,CN(CCN(c1ccccc1)Cc1ccccc1)C,-2.845571216,3.2548,254.37
,C2221,CHRFQIPAIYEJEP-UHFFFAOYSA-N,OC(=O)C(CC(=O)O)(CC(=O)O)O.CN1C2CCC1CC(C2)OC1c2ccccc2CCc2c1cccc2,-6.428397649,3.2058,525.59
,C4660,CHVJITGCYZJHLR-UHFFFAOYSA-N,CCCNC(=O)OCC(C(CC)C)(COC(=O)N)C,-3.633501683,3.3615,274.357
,C1019,CHXQMYIAXRURDN-UHFFFAOYSA-N,C1=CC=CC=CC1,-2.1500001,2.0587,92.1384
,C7521,CIAWGAQGHUAOHH-UHFFFAOYSA-L,NNC(Cc1cc(OC)c(c(c1)OC)OC)C,-1.724660973,2.1979,240.299
,C9433,CIDWJZPXRNBAKP-UHFFFAOYSA-N,CC[N+](CCCCCCC[N+](CC)(CC)C)(CC)C.[Br-].[Br-],0.364185622,-2.0823,432.321
,C5558,CIEZMYRJRCLYNF-UHFFFAOYSA-N,SCCNCCCCc1ccc(cc1)OC.Cl,-3.009285592,3.7302,275.838
,C8257,CIFRXCOPJOGUDL-UHFFFAOYSA-N,CC(C12COP(=O)(OC1)OC2)C,-1.125280157,1.8139,192.149
,C6108,CIMQMKORBAJNEC-UHFFFAOYSA-N,C[NH+](CCOC(c1cccs1)c1ccccc1)C.[Cl-],-2.655099067,-0.9974,297.843
,C1952,CIPKTKYIACDNOR-UHFFFAOYSA-N,CC(=O)OCCN1CCN(CC1)CCCN1c2ccccc2Sc2c1cc(cc2)C(F)(F)F.Cl.Cl,-7.487042507,6.4237,552.48
,C2040,CIRWEZJXZRWTHE-UHFFFAOYSA-M,CC(=CCN(CCC(c1cccc2c1cccc2)(C(=O)N)C)CC=C(C)C)C.Cl,-7.039427734,6.7096,415.011
,C9565,CITLTOAOKDLBDU-UHFFFAOYSA-N,COc1cccc(c1)C[N+](C)(C)C.[Br-],0.524503229,-1.0946,260.171
,C3228,CIWBQSYVNNPZIQ-XYWKZLDCSA-N,Clc1ccc(cc1)CNCC1CCN(CC1)Cc1ccccc1.Cl.Cl,-4.838341367,6.2746,401.801
,C2496,CIWCIDRTACZSAZ-UHFFFAOYSA-N,CCC(=O)O[C@@]1([C@@H](C)C[C@@H]2[C@]1(C)C[C@H](O)[C@]1([C@H]2CCC2=CC(=O)C=C[C@]12C)F)C(=O)COC(=O)CC,-5.843264366,3.8175,504.588
,C3194,CIXDQQGMRYRUQA-JXMROGBWSA-N,ClC1=C(Nc2ccccc2)C(=O)c2c(C1=O)cccc2,-4.873321214,3.7011,283.709
,C2804,CIZZXSRPHLRRDJ-OSMRDGEFSA-N,CN(c1ccc(cc1)/C=C/c1ccnc2c1cccc2)C,-5.344910189,4.4712,274.36
,C2672,CJAVTWRYCDNHSM-UHFFFAOYSA-N,C=CCO/[NH+]=C(/c1nccc2c1cc(OC)c(c2)OC)\c1ccc(c(c1)OC)OC.[Cl-],-5.54106414,-0.6912,444.908
,C3295,CJBVVZBGGFKPDA-UHFFFAOYSA-N,CC(Cc1cccc(c1)C(F)(F)F)NCCOC(=O)c1ccccc1,-4.743126512,4.4739,351.363
,C5824,CJCSPKMFHVPWAR-JTQLQIEISA-N,CC(Cc1ccccc1)CC(=O)O,-2.834342736,2.3399,178.228
,C8031,CJCSPKMFHVPWAR-UHFFFAOYSA-N,OC(=O)[C@](Cc1ccc(c(c1)O)O)(N)C,-1.32472887,1.1426,211.215
,C8679,CJDRUOGAGYHKKD-RQBLFBSQSA-N,OC(=O)C(Cc1ccc(c(c1)O)O)(N)C,-0.703552588,1.1426,211.215
,C5834,CJDRUOGAGYHKKD-XKUWCPECSA-N,CC[C@H]1[C@@H]2C[C@@H]3N([C@@H]1O)[C@@H]1[C@H]2[C@@H](O)[C@]2([C@H]3N(C)c3c2cccc3)C1,-2.823873265,1.5574,326.433
,C770,CJDWRQLODFKPEL-UHFFFAOYSA-N,CC[C@@H]1[C@@H]2C[C@@H]3N([C@H]1O)[C@@H]1[C@H]2[C@@H](O)[C@]2([C@@H]3N(C)c3c2cccc3)C1,-2.8199999,1.5574,326.433
,C70,CJECIMVYFNJMEE-UHFFFAOYSA-N,O=C(NC(=O)c1c(F)cccc1F)Nc1cc(Cl)c(c(c1F)Cl)F,-7.2800002,4.9756,381.109
,C5622,CJENPNUXCMYXPT-UPHRSURJSA-N,Clc1cnc(c(c1)Cl)OCCCCCNCCSS(=O)(=O)O,-2.964978646,4.5348,389.318
,C8084,CJGXJKVMUHXVHL-UHFFFAOYSA-N,F/C=C(/Cl)\F,-1.284913896,1.9631,98.4791
,C419,CJHXCRMKMMBYJQ-UHFFFAOYSA-N,CC(Cc1ccccc1)(C)C,-4.1500001,3.2752,148.245
,C987,CJMJLDQKTOJACI-BGQAIRJTSA-N,CCCCc1c(C)nc(nc1O)N(C)C,-2.24,1.8992,209.288
,C2030,CJNZAXGUTKBIHP-UHFFFAOYSA-N,O[C@H]([C@H](C(=O)O)O)C(=O)O.O=C([C@H]1CN(C)[C@H]2C(=C1)c1cccc3c1c(C2)c[nH]3)N[C@]1(C)O[C@@]2(N(C1=O)[C@@H](Cc1ccccc1)C(=O)N1[C@H]2CCC1)O.O=C([C@H]1CN(C)[C@H]2C(=C1)c1cccc3c1c(C2)c[nH]3)N[C@]1(C)O[C@@]2(N(C1=O)[C@@H](Cc1ccccc1)C(=O)N1[C@H]2CCC1)O,-7.06532915,2.2682,1313.41
,C798,CJUTVOCZKIFELY-UHFFFAOYSA-M,OC(=O)c1ccccc1I,-2.73,1.9894,248.018
,C2464,CJVFJZNWXDFXHF-UHFFFAOYSA-N,Nc1ccc(cc1)C(c1ccccc1)(C(=O)OC1CC2CCC(C1)[N+]2(C)Cc1ccc(cc1)Cl)O.[Br-],-5.891063132,2.5855,571.933
,C6580,CJYXCQLOZNIMFP-UHFFFAOYSA-N,CCOC(=O)c1cc(=O)c2c(o1)cccc2,-2.357052042,1.9697,218.205
,C8927,CKDMBDPJWHDRFQ-UHFFFAOYSA-N,O=C1CCCCCCN1,-0.334917703,1.3955,127.184
,C9780,CKFMTGDMYVBVIB-HMXKFKBXSA-N,CC(C[N+](/N=C(/C(=C)C)\[O-])(C)C)O,0.72989206,0.7637,186.251
,C6009,CKGGIKOPFUMXET-UHFFFAOYSA-N,[O-][N+](=O)c1ccc(o1)/C=N/NC(=O)C[NH2+]CC.[O-]C(=O)C,-2.710357524,-1.1085,300.268
,C7143,CKHJPWQVLKHBIH-ZDSKVHJSSA-N,CCOC(=O)Cn1c(C)ncc1[N+](=O)[O-],-2.00243706,1.186,213.191
,C1954,CKHYRHIDMKNIGY-QMGGKDRNSA-N,O=CN(/C(=C(\SS/C(=C(\N(Cc1cnc(nc1N)C)C=O)/C)/CCOC(=O)C(C)C)/CCOC(=O)C(C)C)/C)Cc1cnc(nc1N)C,-7.466676129,7.122,702.888
,C3007,CKICBBJJCUQLPO-UHFFFAOYSA-N,OC(=O)C(=O)[O-].CCCCOc1c(OC)cccc1C(=O)NCC/[NH+]=C(/CCC)\C,-5.105427312,0.1573,424.488
,C7187,CKIPCLCBYTWUEZ-UHFFFAOYSA-N,O=C1OCC2(C1)CCCCC2,-1.970625777,1.8838,154.206
,C3155,CKJMHSMEPSUICM-UHFFFAOYSA-N,CN(CCN1c2ccccc2Sc2c1cccc2)C.Cl,-4.916386004,4.7179,306.853
,C6962,CKKFZNCSQNYGKZ-UHFFFAOYSA-M,[O]N(C(C)(C)C)C(C)(C)C,-2.113756743,2.2309,144.235
,C9171,CKKPZBXIMKKKBT-UHFFFAOYSA-N,Brc1cccc(c1)C[N+](C)(C)C.[Br-],0.091927923,-0.3407,309.041
,C7771,CKLJMWTZIZZHCS-REOHCLBHSA-N,FCCN(P1(=O)NCCCO1)CCCl,-1.549033443,1.9435,244.631
,C7968,CKLLRBPBZLTGDJ-UHFFFAOYSA-N,OC(=O)C[C@@H](C(=O)O)N,-1.395023054,-0.4267,133.103
,C61,CKMXAIVXVKGGFM-UHFFFAOYSA-N,Clc1ccc(c(c1)Cl)c1cc(Cl)c(c(c1Cl)Cl)Cl,-7.3899999,7.274,360.878
,C5504,CKOSQUYTLIODNV-UHFFFAOYSA-N,CC(c1ccc(cc1)C(=O)O)C,-3.036406759,2.5082,164.201
,C5925,CKPOISPEUWPZBX-UHFFFAOYSA-N,OC(=O)C(=O)O.CN(CCCC1OC(c2c1cccc2)(C)C)C,-2.765432274,2.4904,323.384
,C8369,CKQHAYFOPRIUOM-UHFFFAOYSA-N,CCC(NC)(CC)C.Cl,-1.007736296,2.9774,151.678
,C1306,CKQHXOCXLJZGSX-UHFFFAOYSA-N,Nc1cccc(c1)C(=O)C,-1.28,2.0526,135.163
,C4590,CKQISVVSBPQHHP-UHFFFAOYSA-N,Clc1ccc2c(c1)nccc2OCCCCCNCCSS(=O)(=O)O,-3.670859787,5.0346,404.932
,C3811,CKRZKMFTZCFYGB-UHFFFAOYSA-N,Cc1cc(OCCCCCNCCSS(=O)(=O)O)nc2c1cccc2Cl,-4.240146178,5.343,418.959
,C1439,CKSJXOVLXUMMFF-UHFFFAOYSA-N,ONc1ccccc1,-0.74000001,1.5607,109.126