Name,Compound ID,InChIKey,SMILES,logS,logP,MW
,C6551,UYIFTLBWAOGQBI-BZDYCCQFSA-N,Cn1c(=O)n(C)c2c(c1=O)[nH]cn2.COC(CNC(=O)c1ccccc1OCC(=O)[O-])C[Hg].[Na+].O,-2.373082074,-1.1879,687.021
,C6956,UYIPQECISAQMIU-WZTVWXICSA-N,O=c1[nH]c2nccnc2c(=O)[nH]1,-2.118262053,-0.9936,164.122
,C2073,UYLXIECXAARLRA-KHPPLWFESA-N,O=C(c1ccccc1)Oc1ccc2c(c1)CC[C@@H]1[C@@H]2CC[C@]2([C@H]1CC[C@@H]2O)C,-6.894428661,5.1228,376.488
,C3106,UYNVMODNBIQBMV-UHFFFAOYSA-N,CC(=O)NCc1c(I)c(NC(=O)C)c(c(c1I)C(=O)O)I.CNC[C@@H]([C@H]([C@@H]([C@@H](CO)O)O)O)O,-4.984025343,0.2896,823.154
,C5344,UYOCGYKHIPHFBD-UHFFFAOYSA-N,CCNC(=O)/C(=C(\c1ccccc1)/C)/C,-3.137843619,3.007,203.28
,C5417,UYODDCKMZFCTPB-UHFFFAOYSA-N,Oc1ccc(cc1)C(C(N1CCC(CC1)Cc1ccccc1)C)O,-3.093026872,3.7067,325.445
,C6622,UYTMLDBQFLIQJA-GQCTYLIASA-N,CC1CCCCN1CCCOC(=O)c1cccnc1,-2.332526204,2.4408,262.347
,C3215,UYTPUPDQBNUYGX-UHFFFAOYSA-N,C=CCOc1ccccc1C(=O)NC1CCCCC1,-4.850403492,3.7048,259.343
,C8719,UYVDLZFIIVODJV-UHFFFAOYSA-N,O/N=C/c1ccco1,-0.640880342,1.0877,111.099
,C557,UYXAWHWODHRRMR-GFCCVEGCSA-N,Nc1[nH]c(=O)c2c(n1)[nH]cn2,-3.5799999,-0.1904,151.126
,C6299,UYXAWHWODHRRMR-UHFFFAOYSA-N,CC1=NS(=O)(=O)c2c(N1)cc(Cl)c(c2)S(=O)(=O)N,-2.535548695,2.9555,309.75
,C794,UYXCSOAMZMOWRY-UHFFFAOYSA-N,O=C1NC(=O)[C@@](C(=O)N1C)(C)C1=CCCCC1,-2.74,1.468,236.267
,C5974,UYXHCVFXDBNRQW-UHFFFAOYSA-N,O=C1NC(=O)C(C(=O)N1C)(C)C1=CCCCC1,-2.734921162,1.468,236.267
,C8121,UZECCNDOASGYNH-UHFFFAOYSA-N,O=C1NS(=O)(=O)Cc2c1cccc2,-1.249601528,1.6694,197.211
,C640,UZGWBNJMOBHHIU-UHFFFAOYSA-N,CCCCCNCCOC(=O)c1ccc(cc1)N,-3.27,3.1775,250.337
,C8384,UZHSEJADLWPNLE-GRGSLBFTSA-N,N#Cc1ccc(cc1)S(=O)(=O)N,-0.991729342,1.98678,182.2
,C4359,UZJLYRRDVFWSGA-UHFFFAOYSA-N,N#Cc1ccc2c(c1)c(N)c1c(n2)cccc1,-3.83850652,3.42308,219.241
,C6566,UZJNTDYYQJIUTM-UHFFFAOYSA-M,C=CCN1CC[C@@]23[C@@]4([C@H]1Cc1c3c(O[C@H]2C(=O)CC4)c(cc1)O)O,-2.364295705,1.2393,327.374
,C8288,UZLRPNHVKXCOHS-UHFFFAOYSA-N,CC(=O)NCc1ccccc1,-1.10149852,1.7136,149.19
,C6481,UZLYOWSQVRAOBL-UHFFFAOYSA-M,CCCCC1(CC)C(=O)N=C(N(C1=O)C)[O-].[Na+],-2.426887538,0.7316,248.254
,C9372,UZMPCPFDZYTEJG-UHFFFAOYSA-N,CC(=O)NCCSC(=O)C,0.317628611,0.7931,161.222
,C8407,UZQBOFAUUTZOQE-VSLWXVDYSA-N,Oc1cccc(c1)C(=O)[O-].[Na+],-0.973953261,-0.2443,160.103
,C2987,UZQWAYFXMZILIT-UHFFFAOYSA-N,CNCC/C=C/1\c2ccccc2C=Cc2c1cccc2.Cl,-5.12760962,5.4045,297.822
,C3324,UZSOAEWQSFKJHC-UHFFFAOYSA-N,CC[C@H]1OC(=O)[C@H](C)C(=O)[C@H](C)[C@@H](O[C@@H]2O[C@H](C)C[C@@H]([C@H]2O)N(C)C)[C@H](C[C@H](C(=O)/C=C/[C@]1(C)O)C)C,-4.700777234,2.5129,525.675
,C4367,UZVHFVZFNXBMQJ-UHFFFAOYSA-N,O=C(Nc1ccc(cc1)[N+](=O)[O-])CN1CCCCC1,-3.833746109,2.5533,263.292
,C4737,UZYAHEMKIISOPE-ISLYRVAYSA-N,OCCN(c1ccccc1)Cc1ccc2c(n1)cccc2,-3.582467663,3.2337,278.348
,C6953,VABCILAOYCMVPS-UHFFFAOYSA-N,C=CCC1(CC(C)C)C(=O)NC(=O)NC1=O,-2.119282208,1.6186,224.256
,C2824,VABTXEYLYWGJRB-UHFFFAOYSA-N,Cc1ccc(cc1)CN(/N=N/c1ccc(cc1)C(=O)O)C,-5.323249019,3.8239,283.325
,C4323,VACCAVUAMIDAGB-UHFFFAOYSA-N,CC(=O)CC(c1c(=O)oc2c(c1O)cccc2)c1ccc(cc1)[N+](=O)[O-],-3.857187469,4.041,353.325
,C8510,VAGQQSKCZRCJHF-UHFFFAOYSA-N,NC(=N)SCCSC(=N)N.Br.Br,-0.88814886,3.756,340.103
,C919,VAHKBZSAUKPEOV-UHFFFAOYSA-N,Nc1ccc(cc1)S(=O)(=O)Nc1nnc(s1)C,-2.4100001,2.9645,270.331
,C5534,VAIZVCMDJPBJCM-UHFFFAOYSA-N,CCCCN1CCC(CC1)(OC(=O)CC)Cc1cccc(n1)C.Cl.Cl,-3.019723709,5.0623,391.376
,C127,VAJCSPZKMVQIAP-UHFFFAOYSA-N,Clc1ccc(cc1)c1cc(Cl)ccc1Cl,-6.25,5.3138,257.543
,C7120,VAJSWYGXJIEKGX-QPOHYMPGSA-N,O=C(C(F)(F)F)C(F)(F)F.O=C(C(F)(F)F)C(F)(F)F.O.O.O,-2.02558717,3.1673,386.09
,C8149,VAJVDSVGBWFCLW-UHFFFAOYSA-N,Cc1ccc2c(c1)C(=O)C(=O)N2,-1.23090728,1.2678,161.157
,C6406,VALMMTCBNFTXRE-UHFFFAOYSA-L,OC[C@](c1ccccc1)(C(=O)OC1CC2CCC(C1)N2C)C.Cl,-2.4706022,2.8449,339.857
,C1277,VAMBUGIXOVLJEA-UHFFFAOYSA-N,OCCCc1ccccc1,-1.38,1.6115,136.191
,C9272,VAMSJDDNJTVJPS-UHFFFAOYSA-N,CC[N+](CCCCc1ccc(cc1)[N+](CC)(CC)C)(CC)C.[I-].[I-],0.251542964,-1.5194,560.338
,C6605,VAOCPAMSLUNLGC-UHFFFAOYSA-N,CCCCNc1ccc(cc1)O,-2.341598143,2.6772,165.232
,C5852,VATYWCRQDJIRAI-UHFFFAOYSA-N,C[NH2+]CCc1csc2c1cc(C)cc2.[Cl-],-2.810543364,-1.0506,241.78
,C1314,VAUHVOUAJDOEOR-UHFFFAOYSA-N,OCCn1c(C)ncc1[N+](=O)[O-],-1.26,0.6152,171.154
,C8530,VAYOSLLFUXYJDT-RDTXWAMCSA-N,O=Cc1ccc(cc1)N,-0.872163443,1.6625,121.137
,C7726,VBATUBQIYXCZPA-UHFFFAOYSA-N,OCC(COCc1ccc(cc1)C)O,-1.578471054,0.8648,196.243
,C2931,VBCPVIWPDJVHAN-UHFFFAOYSA-N,CCN(C(=O)[C@H]1CN(C)[C@H]2C(=C1)c1cccc3c1c(C2)c[nH]3)CC,-5.187988244,2.8439,323.432
,C9072,VBCRAMVMTKQGPM-UHFFFAOYSA-N,CC(C#C)(C=C)O,-0.080307636,0.5566,96.1271
,C3698,VBEOTBAFTSDSKS-UHFFFAOYSA-N,ClCCN(C(COc1ccccc1)C)Cc1ccccc1.Cl,-4.350003034,4.9969,340.287
,C6678,VBEZUCAXMREMFB-UHFFFAOYSA-N,COc1ccc2c(c1)c(ccn2)C(CN1CCCCC1)O.Cl,-2.288869847,3.5026,322.83
,C7762,VBGLYOIFKLUMQG-UHFFFAOYSA-N,[O-][N+](=O)O.OCCn1cnc2c1c(=O)n(C)c(=O)n2C,-1.555686028,-1.3985,287.229
,C2699,VBJPLMJXXYLNKP-UHFFFAOYSA-N,O=C(N(C)C)COC1c2ccccc2CCc2c1cccc2,-5.505653091,2.9794,295.376
,C2123,VBKNNJQOMLOXQL-UHFFFAOYSA-N,CCCCCc1cc(O)c2c(c1)OC(c1c2cc(C)cc1)(C)C,-6.741542243,5.7278,310.43
,C3214,VBLYWGDAYORRDM-UHFFFAOYSA-N,CN(C(CC12CC3CC(C1)CC(C2)(C3)CC(N(C)C)C)C)C.Cl.Cl,-4.853247514,5.8574,379.451
,C2548,VBOVVOCVQISACR-UHFFFAOYSA-N,C[NH+](CCCC1c2ccccc2C=Cc2c1cccc2)C.[Cl-],-5.739352381,0.231,313.864
,C6013,VBQYVPWJXQKIMF-UHFFFAOYSA-N,CCC1=NCCS1,-2.70732142,0.9773,115.197
,C3944,VCCAAURNBULZRR-SFYZADRCSA-N,CC[NH+](CCN1C(=O)C(C)Oc2c1cc([N+](=O)[O-])c(c2)Cl)CC.[Cl-],-4.143210033,-1.121,378.251
,C5020,VCCZBYPHZRWKFY-UHFFFAOYSA-N,CCC(=O)c1ccc(cc1)OCC(CN1CCC(CC1)(O)c1ccccc1)O,-3.374236775,2.9405,383.481
,C8585,VCFUJWHEYRPYSG-UHFFFAOYSA-N,CC[C@@H]([C@H]1CCCCN1)O,-0.809681017,1.2282,143.227
,C3293,VCGAKFSCYYVKIR-UHFFFAOYSA-N,O=C1CN2CC(OC2(c2c(N1)ccc(c2)Cl)c1ccccc1)C,-4.744604806,3.2898,328.793
,C5198,VCKUSRYTPJJLNI-UHFFFAOYSA-N,CNCC=C(c1ccccc1C)c1ccccc1.Cl,-3.24154012,4.839,273.8
,C3086,VCMGMSHEPQENPE-UHFFFAOYSA-N,C=CCC(c1cccc2c1cccc2)C(=O)OCCN(CC)CC,-5.005981912,4.3845,325.445
,C3846,VCOQVAJFXPHUAM-UHFFFAOYSA-N,COc1cc2nc(nc(c2cc1OC)N)N1CCN(CC1)C(=O)C1CCCO1,-4.213639395,1.6409,387.433
,C9039,VCPXRQXUZJVACG-OGHNNQOOSA-N,CNC1(CCCCC1=O)c1ccccc1Cl.Cl,-0.137013696,4.0907,274.186
,C6829,VCQVXLBFBWVZNI-UHFFFAOYSA-N,CC(=O)N(c1ccccc1C(=O)O)C,-2.190493576,1.3675,193.199
,C6973,VCTHNOIYJIXQLV-UHFFFAOYSA-N,CN1CC[C@@]23[C@H]([C@H]1Cc1c3c(O)c(cc1)O)CCCC2,-2.106346627,2.7239,273.37
,C4560,VCVQSRCYSKKPBA-UHFFFAOYSA-N,Clc1ccc(c(c1)Cl)C1(OC1Br)C(=O)N,-3.690609669,3.1255,310.959
,C2339,VCWIQHZDDCAWHO-UHFFFAOYSA-N,Clc1ccc(cc1)C(c1ccccc1)N1CCN(CC1)Cc1cccc(c1)C.Cl.Cl,-6.124817978,7.0354,463.87
,C7637,VCWJEHDQXIPHQM-UHFFFAOYSA-N,N#Cc1ccccc1OCC(CNC(C)(C)C)O,-1.635203316,2.07698,248.321
,C5169,VCWVDELCRZSGGD-UHFFFAOYSA-N,CN(CCC12CC3CC(C2)CC(C1)C3)C.Cl,-3.266493615,3.9565,243.816
,C3722,VCYBVWFTGAZHGH-UHFFFAOYSA-N,CCC(C(=O)OCC(Cl)(Cl)Cl)(CC)Cl,-4.319887603,3.6974,281.992
,C2407,VCYCFRKSFAXXOL-UHFFFAOYSA-N,OC(=O)C(=O)[O-].CCOc1cc2c(cc1OCC)CC[NH+](C2CCc1ccc(cc1)Cl)C,-6.004663165,3.2722,463.951
,C8529,VCZAWDPRDDWJMS-JTHROIFXSA-N,O=C1c2ccccc2N(C1=O)C,-0.872602492,0.9107,161.157
,C7471,VCZPUGSOJXZKIP-YPMHNXCESA-N,COc1cc(ccc1c1nc2c([nH]1)cncn2)S(=O)C,-1.755645978,2.6316,288.325
,C1784,VCZXDPUECVELRF-UHFFFAOYSA-N,CCCCCOc1ccc(c2c1cccc2)C(=N)[NH+](CCCCC)CCCCC.[Cl-],-9.454721532,3.1032,433.07
,C7118,VDANGULDQQJODZ-UHFFFAOYSA-N,OC(=O)[C@H]1CCCC[C@]1(O)c1ccccc1,-2.026981083,2.149,220.264
,C5384,VDAXOIZQZPYAOM-UHFFFAOYSA-N,CCC(c1ccccc1Cl)OC(=O)N,-3.109617169,3.5867,213.661
,C6177,VDFWPNHAXLIYBZ-UHFFFAOYSA-L,CCN(CCOC(=O)c1ccc(cc1Cl)N)CC,-2.609562154,3.002,270.755
,C7905,VDNBWBPUFMZCEW-UHFFFAOYSA-N,CCC(=O)c1ccc(cc1)N.Cl,-1.450471399,3.2447,185.651
,C9477,VDNBWCJJIKFXID-CRAIPNDOSA-N,CC[N+](CCCOCCC[N+](CC)(C)C)(C)C.[Br-].[Br-],0.391209822,-4.0162,406.241
,C3884,VDNJCIPRRIYXKZ-UHFFFAOYSA-N,O=Cc1ccc(cc1)Sc1ccccc1,-4.184857656,3.6503,214.283
,C1295,VDNNHBMWPQQUCI-UHFFFAOYSA-N,O=C(N[C@@H]1C(=O)N2[C@@H]1SCC(=C2C(=O)O)CN1C=CC=C=C1)Cc1cccs1,-1.3200001,1.794,415.486
,C2114,VDOLRBJLUIFCGO-UHFFFAOYSA-N,CN(C1CCC2(CC1)c1ccccc1CCc1c2cccc1)C.Cl,-6.770500322,5.3775,341.917
,C9092,VDOXASKSMFFHKM-UHFFFAOYSA-M,COCCNCC(COc1ccccc1)O,-0.03887082,1.0532,225.284
,C2553,VDTNNGKXZGSZIP-UHFFFAOYSA-N,C1CCN(C1)CCN1c2ccccc2Sc2c1cccc2.Cl,-5.732015598,5.19,332.891
,C9489,VDTPWANKLYHAIC-UHFFFAOYSA-N,C[N+](CCC[NH+]1CCc2c(C1)cccc2)(C)C.[Br-].[Br-],0.404288878,-3.6989,394.188
,C1010,VDUVBBMAXXHEQP-SLINCCQESA-M,CCCCNC(=O)NS(=O)(=O)c1ccc(cc1)N,-2.1800001,3.5006,271.336
,C6531,VDUWPHTZYNWKRN-UHFFFAOYSA-N,CCN(CCN(CCN(CC)CC)CCN(CC)CC)CC.Cl.Cl.Cl,-2.389254195,4.7198,423.936
,C3889,VDVCBHJNKZNXKT-UHFFFAOYSA-N,[O-]C(=O)[C@@H]1N2C(=O)[C@H]([C@H]2SC1(C)C)NC(=O)c1c(C)onc1c1ccccc1.[Na+],-4.182725556,0.8894,423.418
,C5275,VDVJGIYXDVPQLP-UHFFFAOYSA-N,CCn1nc(C(=O)O)c(=O)c2c1cc1OCOc1c2,-3.179368007,0.8433,262.218
,C985,VDVXNBVVBLPRCL-UHFFFAOYSA-N,CCC1(CC=C(C)C)C(=O)NC(=O)NC1=O,-2.25,1.7627,224.256
,C6083,VDWRUZRMNKZIAJ-UHFFFAOYSA-N,OC(=O)c1ccc2c(c1)OCO2,-2.666327712,1.1135,166.131
,C7583,VDWRVVZCWMZANS-UHFFFAOYSA-N,COc1cc(Cc2cnc(nc2N)N)cc(c1CO)OC,-1.67627197,1.9037,290.318
,C3276,VDZOOKBUILJEDG-UHFFFAOYSA-M,[O-]C(=O)C.CCCCCCCCCCCCCC[NH3+],-4.76387449,2.6856,273.455
,C4965,VEAUDLLZYJVHRI-UHFFFAOYSA-N,O=C(N(c1ccccc1C(=O)N(c1ccccc1)C)C)CN1CCOCC1,-3.40683459,2.1961,367.441
,C4139,VEDTXTNSFWUXGQ-UHFFFAOYSA-N,CCCC[N+](CCCC)(CCCC)CCCC.[OH-],-4.012700001,4.8268,259.471
,C7561,VEESEJJVUZVATI-UHFFFAOYSA-L,ClCCN(CCCl)CCCl.Cl,-1.698028481,2.8068,240.986
,C158,VEFLKXRACNJHOV-UHFFFAOYSA-N,CCOP(=S)(OCC)SCSc1ccc(cc1)Cl,-5.7399998,6.0709,342.865
,C9518,VEIWYFRREFUNRC-UHFFFAOYSA-N,CC[N+](CCCC[N+](CC)(C)C)(C)C.[Br-].[Br-],0.441058748,-4.0328,362.188
,C1043,VELIJARCYHAWJO-UHFFFAOYSA-N,BrCCCBr,-2.0799999,2.1663,201.888
,C9899,VENXSELNXQXCNT-IJYXXVHRSA-N,C1CCCNC1.Cl,0.915037854,1.8907,121.608
,C6318,VEPSYABRBFXYIB-PWXDFCLTSA-M,CCC1(C(C=C(C)C)C)C(=O)NC(=O)NC1=O,-2.522794308,2.0087,238.283
,C9548,VEQOALNAAJBPNY-UHFFFAOYSA-N,O[C@H]([C@H](C(=O)O)O)C(=O)O.C[C@@H]([C@@H](c1cccc(c1)O)O)N,0.498538127,-0.6495,317.292
,C2517,VETRAJBMFDGTPT-ZHACJKMWSA-N,CC(=O)O[C@H]1C[C@@H]2CC[C@@H]3[C@@H]([C@]2(C[C@@H]1N1CCCCC1)C)CC[C@]1([C@H]3C[C@@H]([C@@H]1OC(=O)C)[N+]1(C)CCCCC1)C.[Br-],-5.799895239,2.8666,637.731
,C1624,VEVOECUDDNJOOR-UHFFFAOYSA-L,O=c1cc(n(n1c1ccccc1)C)C,0.70999998,1.4844,188.226
,C4868,VEXVHEBQGLIYEH-UHFFFAOYSA-N,O=C(/C(=C(/c1ccccc1)\C)/C)NC1CC1,-3.486080656,3.1495,215.291
,C9294,VEZDUYOIFCALMU-UHFFFAOYSA-N,CC[N+](CCOC(=O)C1CC2CC[N+]1(C)CC2)(CC)C.[I-].[I-],0.269013549,-4.3883,538.246
,C3055,VEZUQRBDRNJBJY-UHFFFAOYSA-N,CCC(C(=O)OC(C(Cl)(Cl)Cl)C)CC,-5.037371693,3.7245,261.573
,C9006,VFBJXXJYHWLXRM-UHFFFAOYSA-N,NCCCNCC(CSP(=O)(O)O)C.NCCCNCC(CSP(=O)(O)O)C.O.O.O.O.O,-0.193535179,2.6345,574.629
,C8593,VFBNKSCGJOBFNU-UHFFFAOYSA-L,ON=C1CCCCC1,-0.798420434,1.7807,113.158
,C1728,VFEDLMLHAGASHB-UHFFFAOYSA-M,O=C(CCc1cc(c(c(c1)C(C)(C)C)O)C(C)(C)C)OCCSCCOC(=O)CCc1cc(c(c(c1)C(C)(C)C)O)C(C)(C)C,-12.15015633,8.6728,642.929
,C9509,VFFZMENAPNQPEI-UHFFFAOYSA-N,C[N+](CCCCCCC[N+](C)(C)C)(C)C.[Br-].[Br-],0.424556955,-3.6427,376.215
,C7682,VFGRNTYELNYSKJ-UHFFFAOYSA-N,CC[N+](CCC(c1ccccc1)(C1CCCCC1)O)(CC)CC.[I-],-1.607385794,1.7251,445.421
,C7145,VFKZTMPDYBFSTM-GUCUJZIJSA-N,CCC(=O)c1ccc(cc1)OCC(CNCC(c1ccccc1)O)O,-2.001803272,2.7331,343.417
,C8761,VFKZTMPDYBFSTM-KVTDHHQDSA-N,Nc1cc(=O)n(c(=O)n1C)C,-0.567522083,-0.7526,155.155
,C8193,VFLMIPREASACDX-UHFFFAOYSA-N,BrC[C@H]([C@@H]([C@@H]([C@H](CBr)O)O)O)O,-1.198245503,-0.7802,307.965
,C8192,VFOAVFQWZYUFQZ-UHFFFAOYSA-N,BrC[C@H]([C@H]([C@@H]([C@@H](CBr)O)O)O)O,-1.198245503,-0.7802,307.965
,C4602,VFTFKUDGYRBSAL-UHFFFAOYSA-N,Nc1ccc2c(c1)nc1c(c2)cc(cc1)S(=O)(=O)O,-3.66516163,3.8789,274.295
,C7841,VFUGCQKESINERB-UHFFFAOYSA-N,NCCc1cc(OCC)c(c(c1)OC)OCC,-1.501598575,2.6941,239.311
,C8885,VFUVAPUEXXOHTB-UHFFFAOYSA-N,O1CCOCCOCCOCCOCC1,-0.397624653,0.083,220.263
,C7134,VFUZELURVABLEH-WQLSENKSSA-N,CCCC1(CCN(C1)C)c1cccc(c1)O,-2.010680305,2.7035,219.323
,C5830,VFWCMGCRMGJXDK-UHFFFAOYSA-N,Cc1ccc(nc1)OCCCCCN1CSCC1.Cl.Cl,-2.829904461,4.4873,339.324
,C7953,VFZDNKRDYPTSTP-UHFFFAOYSA-N,COc1ccc(cc1)C(=O)/C=N\N(C)C,-1.4140163,1.4253,206.241
,C1061,VFZQJKXVHYZXMM-UHFFFAOYSA-N,CCCCCl,-2.03,2.0253,92.5673
,C5404,VGEBLZDDRJDVDP-AKAIEBDOSA-N,O=C1OC(=O)C2(C(C1CC2)(C)C)C,-3.099225633,1.5123,182.216
,C6691,VGEOUKPOQQEQSX-OALZAMAHSA-M,OC(=O)Cc1csc2c1cccc2,-2.279504288,2.5284,192.234
,C1806,VGEPKKUTRKZFEW-UHFFFAOYSA-N,CO[C@H]1/C=C/O[C@@]2(C)Oc3c(C2=O)c2C(=O)/C(=C/NN4CCNCC4)/C(=C(c2c(c3C)O)O)NC(=O)/C(=C/C=C/[C@@H]([C@@H]([C@H]([C@H]([C@H]([C@@H]([C@@H]1C)OC(=O)C)C)O)C)O)C)/C,-9.067175576,4.0704,808.914
,C9414,VGFFLHYAQABHTR-UHFFFAOYSA-N,O=C(N[C@@H]1C(=O)N2[C@@H]1SCC(=C2C(=O)[O-])COC(=O)C)CSc1ccncc1.[Na+],0.351210786,-0.5305,445.445
,C7331,VGGGPCQERPFHOB-RDBSUJKOSA-N,CC(=O)N1CC=Cc2c1cccc2,-1.863837152,2.1313,173.211
,C4803,VGGSQFUCUMXWEO-UHFFFAOYSA-N,ClCCN(C(=O)NC1CC2CC1CC2)N=O,-3.537693619,2.4977,245.706
,C6548,VGJWVEYTYIBXIA-UHFFFAOYSA-N,O[C@H](C(=O)N[C@H](C(=O)O)CC(C)C)[C@@H](Cc1ccccc1)N,-2.374806077,1.624,308.373
,C1511,VGKDLMBJGBXTGI-SJCJKPOMSA-N,C=C,-0.40000001,0.8022,28.0532
,C9068,VGKIABSFHFOUBK-UHFFFAOYSA-N,OC(C(F)(F)F)O,-0.085055603,-0.1406,116.039
,C1676,VGKPEPAXRYVWPG-RACBXGGBSA-N,CN[C@H]1CC[C@H](c2c1cccc2)c1ccc(c(c1)Cl)Cl	,-4.83 ,5.5705,306.23
,C6988,VGKZBAMIYUHSMU-UHFFFAOYSA-N,CCCCN1CCC(CC1)(OC(=O)CC)c1ccco1.Cl,-2.094630678,4.0639,315.836
,C3711,VGLITONBHLMDKO-UHFFFAOYSA-M,O[C@H]([C@H](C(=O)O)O)C(=O)O.C#C/C(=C/CN1CC[C@@]23[C@H]([C@H]1Cc1c3cc(cc1)O)CCCC2)/C,-4.335071246,1.8454,471.543
,C6305,VGPYEHKOIGNJKV-UHFFFAOYSA-N,ClCCN(C(=O)NC1CCC(CC1)C(=O)O)N=O,-2.532319513,1.9525,277.705
,C2254,VGQBGHMODQMJEJ-UHFFFAOYSA-N,CCOc1cc(C[N+](CCOCCC2CCC3CC2C3(C)C)(C)C)c(cc1OCC)Br.[Br-],-6.33337359,3.3059,577.433
,C1179,VGQLNJWOULYVFV-OJOKCITNSA-N,COC(=O)NS(=O)(=O)c1ccc(cc1)N,-1.66,2.3664,230.241
,C2595,VGRCKKUXCQQONQ-UHFFFAOYSA-N,COc1cc2c(cc1OC)CCN(C2CCc1cccc(c1Cl)Cl)C,-5.669512187,5.1103,380.308
,C1332,VGTADLXBZBVHSO-UHFFFAOYSA-N,COC(=O)[C@@H]1[C@H]2C=C[C@@H]([C@@H]1C(=O)OC)C2,-1.2,0.7707,210.226
,C3744,VGTPCRGMBIAPIM-UHFFFAOYSA-M,CN(CCCCC12CC3CC(C2)CC(C1)C3)C.Cl,-4.300827155,4.7367,271.869
,C3904,VGVIKVCCUATMNG-UHFFFAOYSA-N,OC(=O)C(c1ccc2c(c1)nc(o2)c1ccccc1C)C,-4.17272491,3.9913,281.306
,C9879,VGVRPFIJEJYOFN-UHFFFAOYSA-N,[S-]C#N.[Na+],0.854578529,0.01438,81.0722
,C125,VGWNCYGMSISHSA-UHFFFAOYSA-N,Clc1cc(Cl)c(cc1c1ccccc1)Cl,-6.27,5.3138,257.543
,C693,VGZCKCJMYREIKA-UHFFFAOYSA-N,Oc1c(Cl)cc(c(c1Cl)Cl)Cl,-3.0999999,4.0058,231.891
,C7228,VGZSUPCWNCWDAN-UHFFFAOYSA-N,CCCCN1CCC(CC1)(OC(=O)C)Cc1ccccn1.Cl.Cl,-1.936010796,4.3638,363.322
,C7669,VHAXHUSUMSLYQT-LCYFTJDESA-N,CC(=O)c1c(C)c[nH]c1C,-1.614852928,1.8341,137.179
,C1055,VHBFFQKBGNRLFZ-UHFFFAOYSA-N,O=C(NS(=O)(=O)c1ccc(cc1)C(=O)C)NC1CCCCC1,-2.0599999,4.0724,324.395
,C5981,VHBUILOKMFUWPN-UHFFFAOYSA-N,CCN(/N=C\C(=O)c1ccc(cc1)[N+](=O)[O-])CC,-2.731089023,2.6283,249.266
,C4317,VHHCABARYUXCEG-LWBVMVAASA-N,O=c1cc(oc2c1cccc2)c1ccccc1,-3.862243562,3.46,222.239
,C2026,VHHHONWQHHHLTI-UHFFFAOYSA-N,Clc1ccccc1CNCCCCCCCCNCc1ccccc1Cl.Cl.Cl,-7.082089296,8.5992,466.315
,C3509,VHJLVAABSRFDPM-IMJSIDKUSA-N,CCCCCN1CC[C@@]23[C@H]([C@H]1Cc1c3cc(cc1)O)CCCC2.Cl,-4.531160074,5.3807,349.938
,C528,VHJLVAABSRFDPM-QWWZWVQMSA-N,ClC(C(Cl)(Cl)Cl)(Cl)Cl,-3.6700001,3.7268,236.739
,C9160,VHMRXGAIDDCGDU-UHFFFAOYSA-N,SC[C@@H]([C@H](CS)O)O,0.081310296,-0.4322,154.251
,C9552,VHPMKWNWJJDEEC-UHFFFAOYSA-N,SC[C@H]([C@@H](CS)O)O,0.505612206,-0.4322,154.251
,C7736,VHPXSBIFWDAFMB-UHFFFAOYSA-N,CCC(Cc1ccc2c(c1)OCO2)N,-1.574303284,2.3954,193.242
,C8790,VHRHWROFSPKUJO-UHFFFAOYSA-N,SCC(CCl)O,-0.530718013,0.5159,126.605
,C9276,VHRSUDSXCMQTMA-IZBRYJPGSA-N,NC1=NC(CS1)C(=O)O,0.256763507,-0.363,146.168
,C5889,VHSHLMUCYSAUQU-UHFFFAOYSA-N,OP(=O)(O)O.OP(=O)(O)O.OP(=O)(O)O.CCN(CCCC(NCC1CC2CCN1CC2)C)CC,-2.785971023,0.1138,575.465
,C727,VHUNCYDAXJGCLO-CSWFVJHESA-N,OCC(=O)[C@@]1(O)CC[C@@H]2[C@]1(C)C[C@@H](O)[C@H]1[C@H]2C[C@@H](C2=CC(=O)C=C[C@]12C)C,-2.99,1.8036,374.471
,C8757,VHUXSAWXWSTUOD-UHFFFAOYSA-L,CC(COC(=O)C(=C)C)O,-0.57195019,0.4865,144.168
,C1442,VHVOLFRBFDOUSH-IHWYPQMZSA-N,COC(=O)c1ccccc1O[C@@H]1O[C@H](CO[C@H]2OC[C@@H]([C@H]([C@@H]2O)O)O)[C@H]([C@@H]([C@H]1O)O)O,-0.74000001,-2.8848,446.403
,C3812,VHVPQPYKVGDNFY-UHFFFAOYSA-N,[O-]C(=O)C(c1cccc(c1)Oc1ccccc1)C.[O-]C(=O)C(c1cccc(c1)Oc1ccccc1)C.[Ca+2],-4.239611212,4.6646,522.602
,C5177,VHYCDWMUTMEGQY-UHFFFAOYSA-N,C/C=C\c1ccc2c(c1)OCO2,-3.262095099,2.4484,162.185
,C1802,VIBYZASVNHEHTK-UHFFFAOYSA-N,CCC(n1ncn(c1=O)c1ccc(cc1)N1CCN(CC1)c1ccc(cc1)OCC1COC(O1)(Cn1cncn1)c1ccc(cc1Cl)Cl)C,-9.174733823,5.7073,705.633
,C6883,VIDAVEJTWOLBOO-UHFFFAOYSA-N,OC(COc1ccc(cc1)COCCOC(C)C)CNC(C)C,-2.162234936,2.7568,325.443
,C5928,VIDRYROWYFWGSY-UHFFFAOYSA-N,CC[NH+](CCOC(=O)C(=C)c1ccccc1)CC.[Cl-],-2.764586433,-1.8283,283.794
,C3522,VIGQYLPJWCMABB-UHFFFAOYSA-N,CCC1CNC(=O)OC21CCN(CC2)CCCC(=O)c1ccc(cc1)Cl,-4.514063177,4.1702,378.893
,C8917,VIIIJFZJKFXOGG-UHFFFAOYSA-N,CC(NCC(c1ccc(cc1)NS(=O)(=O)C)O)C.Cl,-0.353620742,3.4362,308.825
,C7451,VIKNJXKGJWUCNN-LTQVEWQYSA-N,NNC(Cc1ccc(cc1)OC)C,-1.774435078,2.1807,180.247
,C6521,VIKNJXKGJWUCNN-XGXHKTLJSA-N,O=c1oc2ccccc2cc1C,-2.394824933,2.1014,160.169
,C319,VIOQXAZSOUBTRO-UHFFFAOYSA-L,C#C[C@@]1(O)CC[C@@H]2[C@]1(C)CC[C@H]1[C@H]2CCC2=CC(=O)CC[C@H]12,-4.5700002,3.4925,298.419
,C1678,VIQCGTZFEYDQMR-UHFFFAOYSA-N,C#C[C@]1(O)CC[C@@H]2[C@]1(C)CC[C@H]1[C@H]2CCC2=CC(=O)CC[C@H]12	,-4.63 ,3.4925,298.419
,C3603,VIROVYVQCGLCII-UHFFFAOYSA-N,C[N+]1(CCCC[N+]2(C)CCCCC2)CCCCC1.[I-].[I-],-4.441277508,-3.0468,508.264
,C1740,VIUDTWATMPPKEL-UHFFFAOYSA-N,CCCCCCCCCC(=O)OCCN1CCN(CC1)CCCN1c2ccccc2Sc2c1cc(cc2)C(F)(F)F,-11.35885907,7.9405,591.771
,C865,VIULBFHXDPUWIL-UHFFFAOYSA-N,CCC1(CCC(C)C)C(=O)NC(=O)NC1=O,-2.5699999,1.8426,226.272
,C1247,VJECBOKJABCYMF-UHFFFAOYSA-N,Nc1cccc(c1)C(F)(F)F,-1.47,2.8688,161.124
,C8643,VJJPTBBOPNGSRR-UHFFFAOYSA-N,CC[Sn](O[Sn](CC)(CC)CC)(CC)CC,-0.746436269,5.0134,427.768
,C3691,VJJPUSNTGOMMGY-MRVIYFEKSA-N,CS(=O)(=O)O.COc1cc2nc(nc(c2cc1OC)N)N1CCN(CC1)C(=O)C1COc2c(O1)cccc2,-4.354634599,2.8867,547.581
,C6813,VJJPUSNTGOMMGY-SBPDDUSOSA-N,OC(=O)COc1ccc2c(c1)CCC2,-2.198137728,1.6387,192.211
,C4154,VJKUPQSHOVKBCO-ZTYBEOBUSA-N,COc1cc(cc(c1O)OC)[C@H]1[C@H]2C(=O)OC[C@@H]2[C@@H](c2c1cc1OCOc1c2)O[C@@H]1O[C@@H]2CO[C@H](O[C@H]2[C@@H]([C@H]1O)O)C,-4.001154125,1.3386,588.557
,C559,VJKVHUZOVAWKEB-UHFFFAOYSA-N,COc1cc(cc(c1O)OC)[C@@H]1[C@H]2C(=O)OC[C@@H]2[C@H](c2c1cc1OCOc1c2)O[C@H]1O[C@H]2CO[C@@H](O[C@@H]2[C@H]([C@@H]1O)O)C,-3.5699999,1.3386,588.557
,C6866,VJLOFJZWUDZJBX-UHFFFAOYSA-N,CC(=C)[C@@H]1C2OC(=O)C1[C@]1([C@]3([C@@H]2OC(=O)[C@]23C(C1)O2)C)O.O=C1OC2[C@H](C1[C@]1(O)C[C@@H]3[C@]4([C@@]1([C@@H]2OC4=O)C)O3)C(O)(C)C,-2.167237336,-0.9292,602.583
,C2736,VJMGTIWUJWAAPO-GQCTYLIASA-N,CCC1=C(CCC(C1C)C(=O)O)c1ccc(cc1)OC,-5.454243744,3.9895,274.355
,C9873,VJNXVAVKCZJOFQ-UHFFFAOYSA-N,OCCNCCO.Cl,0.848952082,-0.2465,141.597
,C4749,VJOVAKSZILJDBB-UHFFFAOYSA-N,CCCOc1ccc(cc1Cl)/C=C/C(=O)NO,-3.574580219,3.0383,255.697
,C8848,VJQAGNDBNAYVDB-UHFFFAOYSA-N,CC1NCCOC1c1ccccc1.Cl,-0.446153248,2.8668,213.704
,C585,VJSZGADWCZOKOK-UHFFFAOYSA-N,Ic1[nH]c(c(c1I)I)I,-3.46,3.4331,570.675
,C5632,VJTAPTNTBCXQPO-UHFFFAOYSA-N,CN(CC=C(c1ccccc1)c1ccccc1)C.Cl,-2.954566189,4.4819,273.8
,C6818,VJVOAGLABGZRSL-UHFFFAOYSA-N,COc1cccc(c1)Cc1cnc(nc1N)N,-2.195513191,2.4028,230.266
,C4628,VJXSSYDSOJBUAV-UHFFFAOYSA-N,NC1=NCC(O1)CN1CCN(CC1)c1ccc(c(c1)Cl)Cl,-3.65037904,1.9677,329.225
,C8583,VJZLQIPZNBPASX-OJJGEMKLSA-L,COC1=CC(=O)C(=CC1=O)C,-0.81120124,0.6148,152.147
,C4991,VKBPZWOOYLNYSW-RXTAPGOISA-N,COc1ccc(cc1Cc1cnc2c(c1C)c(N)nc(n2)N)OC,-3.391806259,3.268,325.365
,C9368,VKBPZWOOYLNYSW-YGICXTQQSA-N,O=C1C=C[C@]2(C(=C1)CC[C@@H]1[C@@H]2[C@@H](O)C[C@]2([C@H]1CC[C@]2(O)C(=O)COP(=O)([O-])[O-])C)C.[Na+].[Na+],0.314803038,2.551,484.388
,C3232,VKCYHJWLYTUGCC-UHFFFAOYSA-N,Oc1ccc2c(c1)[C@@]13CCCC[C@@H]3[C@H](C2)N(CC1)CCc1ccccc1.Br,-4.833904011,5.5893,428.405
,C3231,VKEBWCZVWZDPKV-UHFFFAOYSA-N,Oc1ccc2c(c1)[C@]13CCCC[C@H]3[C@@H](C2)N(CC1)CCc1ccccc1.Br,-4.833904011,5.5893,428.405
,C859,VKERRRJLZIDHSP-UHFFFAOYSA-N,CCCCCCCC(=O)C,-2.5799999,2.9359,142.239
,C4234,VKHAHZOOUSRJNA-GCNJZUOMSA-N,Cc1ccc(cc1)C1SCCS1,-3.936951961,3.4736,196.332
,C5706,VKIHKZMKDNVEIK-PKLMIRHRSA-N,O=C1C(CCN1c1ccc(cc1)C)N1CCCC1,-2.907984072,2.199,244.332