Name,Compound ID,InChIKey,SMILES,logS,logP,MW
,C4755,ITRJWOMZKQRYTA-RFZYENFJSA-N,COc1cc(cc(c1OC)OC)C(=O)OC1CCC[C@H]2[C@@H]1CCN(C2)C,-3.570999647,2.9275,363.448
,C1778,ITUYMTWJWYTELW-UHFFFAOYSA-N,CCCCc1oc2c(c1C(=O)c1cc(I)c(c(c1)I)OCCN(CC)CC)cccc2.Cl,-9.578370491,7.7382,681.773
,C452,ITVNCWVUKPYKMU-UHFFFAOYSA-N,CC(=O)OCC(=O)[C@@]1(O)CC[C@@H]2[C@]1(C)CC(=O)[C@H]1[C@H]2CCC2=CC(=O)CC[C@]12C,-4,2.5606,402.481
,C8058,ITYHHDFUDHMOMP-UHFFFAOYSA-N,Cl/N=C/1\C=CC(=O)C=C1,-1.310565087,1.2763,141.555
,C5225,ITYXRJDDBZMFAY-UHFFFAOYSA-N,N/C(=N\CCC1CCCCC1)/CSS(=O)(=O)O,-3.225063087,3.6311,280.407
,C2211,IUCJMVBFZDHPDX-UHFFFAOYSA-N,COC1(CCC(CC1)NCCCC(=O)c1ccc(cc1)F)c1cccc(c1)C(F)(F)F.Cl,-6.46620561,7.0744,473.931
,C5812,IUFZTNHOGFUUBG-UHFFFAOYSA-N,CSc1c(Cl)nc(nc1N1CCN(CC1)C)NC,-2.844208663,1.7213,287.812
,C9328,IUGDILGOLSSKNE-UHFFFAOYSA-N,C1CN1c1nc(nc(n1)N1CC1)N1CC1,0.291925569,-0.4734,204.232
,C6175,IUILSTHMSGDSHQ-UHFFFAOYSA-N,CN1CCC(C1)OC(=O)C(c1ccccc1)(C1CCCC1)O.Cl,-2.612221948,3.0516,339.857
,C3240,IUJDSEJGGMCXSG-UHFFFAOYSA-N,ClC(C(c1ccc(cc1)O)c1ccc(cc1)O)(Cl)Cl,-4.817919689,4.5999,317.595
,C58,IUJDSEJGGMCXSG-ZETCQYMHSA-N,c1ccc2c(c1)c1[nH]c3c(c1cc2)ccc1c3cccc1,-7.4200001,5.6275,267.324
,C4970,IULJSGIJJZZUMF-UHFFFAOYSA-N,CCCC(C1(CC)C(=O)NC(=S)NC1=O)C,-3.402103275,2.0075,242.338
,C614,IUMRYNUBZSCOQG-UHFFFAOYSA-N,CCC[C@@H](C1(CC)C(=O)NC(=S)NC1=O)C,-3.3599999,2.0075,242.338
,C9811,IUNBSQBAZSNEOK-UHFFFAOYSA-N,Oc1ccccc1S(=O)(=O)O,0.759026648,1.7197,174.174
,C275,IUNJCFABHJZSKB-UHFFFAOYSA-N,CCn1c2ccccc2n(c(=O)c2c1cccc2)C,-4.75,3.0753,252.311
,C2891,IUPCWCLVECYZRV-JZMZINANSA-N,CCCC(=O)c1ccc(cc1)OCC(CN1CCN(CC1)c1ccccc1)O,-5.238243707,3.2342,382.496
,C8113,IUQRFVREMWMGPS-UHFFFAOYSA-N,O=Cc1ccc(cc1O)O,-1.257453785,0.9103,138.121
,C3742,IUTPYMGCWINGEY-UHFFFAOYSA-N,O=CC[C@H]1C[C@@H](C)C(=O)/C=C/[C@]2(C)O[C@H]2[C@@H]([C@H](OC(=O)C[C@H]([C@@H]([C@H]1O[C@@H]1O[C@H](C)C[C@@H]([C@H]1O)N(C)C)C)O)CC)C,-4.30143855,2.6704,581.738
,C7986,IUUDHOBDQKMUFS-UHFFFAOYSA-N,CCCCNC1=CC(=O)c2c(C1=O)cccn2,-1.374118863,2.1251,230.262
,C60,IUWVALYLNVXWKX-UHFFFAOYSA-N,Clc1cc(Cl)c(cc1c1ccc(c(c1)Cl)Cl)Cl,-7.3899999,6.6206,326.433
,C1834,IUXBQHOEFVDPEG-UHFFFAOYSA-M,BrCCN(c1ccc(cc1)OC(=O)c1ccc(cc1)c1ccccc1)CCBr,-8.552550872,6.169,503.226
,C701,IUZCDJYHMMWBBE-UHFFFAOYSA-N,CCCCOC(=O)c1ccc(cc1)N,-3.0799999,2.8069,193.242
,C9587,IVBHGBMCVLDMKU-GXNBUGAJSA-N,COc1ccc(cc1C(C[N+](C)(C)C)O)OC.[Cl-],0.559448241,-1.5526,275.772
,C4146,IVFHUYCFFOSCLM-UHFFFAOYSA-N,CCC(c1cnc(c(=O)n1O)CC(C)C)C,-4.007428425,2.1926,224.299
,C4978,IVFYLRMMHVYGJH-PVPPCFLZSA-N,CCN1CCN(C(=O)C1=O)C(=O)N[C@@H](C(=O)N[C@@H]1C(=O)N2[C@@H]1SC([C@@H]2C(=O)O)(C)C)c1ccccc1,-3.398827878,0.3552,517.555
,C2268,IVHBBMHQKZBJEU-UHFFFAOYSA-N,CCN(CCCn1c2ccccc2[nH]c(=O)c2c1cccc2)CC,-6.300278714,3.7769,323.432
,C3029,IVKQLFYZTJODMJ-UHFFFAOYSA-N,O=C1CC[C@]2(C(=C1)C[C@@H]([C@@H]1[C@@H]2CC[C@]2([C@H]1CC[C@]2(C)O)C)C)C,-5.07043942,4.5153,316.478
,C4779,IVQOFBKHQCTVQV-UHFFFAOYSA-N,CCCCOc1nc2ccccc2c(c1)C(=O)NCCN(CC)CC.Cl,-3.558513134,4.6782,379.924
,C8357,IVSZLXZYQVIEFR-UHFFFAOYSA-N,CNCCc1c[nH]c2c1cccc2.Cl,-1.027009651,3.1227,210.703
,C6340,IVTJRTIQLPWTJP-BJFQDICYSA-N,CCN(CCOC(=O)C(c1ccccc1)(c1ccccc1)O)CC,-2.512944461,2.8075,327.417
,C768,IVUXTESCPZUGJC-UHFFFAOYSA-N,Cc1cccc(c1)C,-2.8199999,2.3034,106.165
,C1848,IVVNZDGDKPTYHK-UHFFFAOYSA-N,CCCCCOc1ccc(c2c1cccc2)C(=N)[NH+](CCCC)CCCC.[Cl-],-8.414355099,2.323,405.016
,C255,IWDBEHWZGDSFHR-BTJKTKAUSA-N,Clc1ccc(cc1)Oc1ccc(cc1)NC(=O)N(C)C,-4.8899999,4.2988,290.745
,C8511,IWDCLRJOBJJRNH-UHFFFAOYSA-N,CC(C(C)(C)C)/N=C(/Nc1ccncc1)\NC#N,-0.885959976,2.81868,245.323
,C2435,IWDDXZKCDHOOSF-UHFFFAOYSA-N,OC(=O)/C=C\C(=O)O.CSc1ccc2c(c1)C(Cc1c(S2)cccc1)N1CCN(CC1)C,-5.944535982,3.9919,472.62
,C1454,IWEDIXLBFLAXBO-UHFFFAOYSA-N,Cc1ccc(cc1)O,-0.69999999,1.7006,108.138
,C1071,IWGXWWNPWMLNMY-UHFFFAOYSA-N,O=C1NC(=O)NC(=O)C1(O)C1(O)C(=O)NC(=O)NC1=O,-1.99,-3.5042,286.155
,C1169,IWIBNHDAPLKYSK-OCIYDRMTSA-N,COc1c(Cl)ccc(c1C(=O)O)Cl,-1.7,2.7002,221.037
,C2051,IWQDAJHWXYWODB-UHFFFAOYSA-N,ClCC[NH+](C(COc1ccccc1C(C)C)C)Cc1ccccc1.[Cl-],-7.003843454,0.9052,382.367
,C3458,IWTBVKIGCDZRPL-LURJTMIESA-N,C=CCOc1ccc2c(c1)[C@]13CCCC[C@H]3[C@@H](C2)N(CC1)C.Br,-4.57789833,4.8356,378.346
,C3148,IWTFDHOAOPEINT-UHFFFAOYSA-N,OC(=O)C(c1ccc2c(c1)nc(o2)c1cccc(c1)C(F)(F)F)C,-4.921184198,4.7017,335.277
,C1449,IWUCXVSUMQZMFG-AFCXAGJDSA-N,OCC[C@H](CC)C,-0.72000003,1.4149,102.175
,C7271,IWVCMVBTMGNXQD-PXOLEDIWSA-N,COc1ccc(cc1)Cn1cc(F)c(=O)[nH]c1=O,-1.913895433,0.7326,250.226
,C8987,IWVCMVBTMGNXQD-RKLSJVJESA-N,OC[C@H]1O[C@H]([C@@H]([C@@H]1O)O)n1cnc(n1)C(=O)N,-0.235469764,-2.3112,244.205
,C1707,IWVTXAGTHUECPN-ANBBSHPLSA-N,OC(COc1cccc2c1C[C@H](O)[C@@H](C2)O)CNC(C)(C)C	,-1.01 ,1.0257,309.401
,C679,IWXAZSAGYJHXPX-LYWFMZLMSA-N,CN([C@@H]1C(=C(C(=O)N)C(=O)[C@]2([C@H]1[C@@H](O)[C@H]1C(=C2O)C(=O)c2c([C@@]1(C)O)cccc2O)O)O)C,-3.1400001,-0.5433,460.434
,C4875,IWYDHOAUDWTVEP-UHFFFAOYSA-N,CCOC(=O)OC(OC(=O)[C@@H]1N2C(=O)[C@H]([C@H]2SC1(C)C)NC(=O)[C@@H](c1ccccc1)N)C.Cl,-3.477969078,3.1269,501.981
,C1958,IWYDNHDPJXFEOV-UHFFFAOYSA-N,O=CN(/C(=C(\SS/C(=C(\N(Cc1cnc(nc1N)C)C=O)/C)/CCOC(=O)c1ccccc1)/CCOC(=O)c1ccccc1)/C)Cc1cnc(nc1N)C,-7.430949347,8.4376,770.92
,C9156,IWYNVAJACBPVLT-UHFFFAOYSA-N,OC(c1ccccc1)C(=O)O,0.075409473,0.8046,152.147
,C8880,IXACLQSORYJAHN-UHFFFAOYSA-M,NC(=O)N(c1ccccc1C)C,-0.403149588,2.2102,164.204
,C1796,IXBBCDAOBKUSMR-UHFFFAOYSA-N,Nc1cc(C)[n+](c2c1cccc2)CCCCCCCCCC[n+]1c(C)cc(c2c1cccc2)N.[O-]C(=O)C.[O-]C(=O)C,-9.25298603,4.845,574.753
,C9781,IXCKMBNPNHSVAG-UHFFFAOYSA-N,FCC[N+](C)(C)C.[Br-],0.730328334,-2.3339,186.066
,C2676,IXMINYBUNCWGER-UHFFFAOYSA-M,CCC([NH2+]CCOC(=O)C1c2ccccc2c2c1cccc2)C.[Cl-],-5.534587753,-0.292,345.863
,C3525,IXORZMNAPKEEDV-ZEMROTDWSA-N,Clc1cc(OCCCCCN2CSCC2)nc2c1cccc2.Cl,-4.507641881,5.1835,373.34
,C8901,IXQGCWUGDFDQMF-UHFFFAOYSA-N,CCCOC(=O)c1ccc(cc1)[O-].[Na+],-0.371755769,2.3972,202.182
,C1133,IXSOBROTCIOFLL-UHFFFAOYSA-N,OC(=O)[C@@H]1[C@@H]2[C@]3([C@@H]4[C@]51CC(=C)[C@](C5)(O)CC4)C=C[C@H]([C@@]2(C)C(=O)O3)O,-1.84,1.0271,346.374
,C1284,IXWXDMFXNONZHI-UHFFFAOYSA-N,CCc1ccccc1O,-1.36,1.9546,122.164
,C9714,IXZHDDUFQVXHIL-UOAIQHMYSA-N,OC(c1ccc(c(c1)O)C)C([NH3+])C.[Cl-],0.662155556,-2.6316,217.693
,C7086,IYBNXXLIJPVZSQ-UHFFFAOYSA-N,CSCCCCCCN1CCSC1.Cl,-2.04251952,3.656,255.871
,C3568,IYBPCWPWORICBI-UHFFFAOYSA-N,O[C@H]1CC[C@]2([C@@H](C1)CC[C@@H]1[C@@H]2CC[C@]2([C@]31O[C@@H]3[C@@H]([C@@H]2c1ccc(=O)oc1)O)C)C,-4.469079888,3.2291,400.508
,C6554,IYBQHJMYDGVZRY-UHFFFAOYSA-N,Clc1ccccc1OCCNC1CC1.Cl,-2.369403164,3.6637,248.149
,C2354,IYCHDNQCHLMLJZ-UHFFFAOYSA-N,CN(CCC(=O)Nc1ccc(cc1Sc1ccc(cc1)Cl)Cl)C,-6.102001148,5.1078,369.309
,C6716,IYEPZNKOJZOGJG-UHFFFAOYSA-N,CCN(CC(=O)Nc1c(C)cccc1C)CC.Cl,-2.265332913,3.4587,270.798
,C9310,IYETZZCWLLUHIJ-UHFFFAOYSA-N,ONC(=O)c1cccnc1,0.28132846,0.5915,138.124
,C3785,IYFOEVOXKZUQPJ-UHFFFAOYSA-N,CCC(c1ccc(cc1)c1ccccc1)C(=O)O,-4.25952593,3.9318,240.297
,C6670,IYIKLHRQXLHMJQ-UHFFFAOYSA-N,CC(N(CC#C)C)Cc1ccccc1.Cl,-2.296672954,2.9846,223.742
,C7619,IYJMSDVSVHDVGT-PEQKVOOWSA-N,Clc1ccc2c(c1)c(=O)[nH]s2,-1.649543136,2.243,185.631
,C1791,IYKFYARMMIESOX-UHFFFAOYSA-N,CCCCc1oc2c(c1C(=O)c1cc(I)c(c(c1)I)OCCN(CC)CC)cccc2,-9.35875668,6.9362,645.312
,C2185,IYMDCTFFGDILDM-UHFFFAOYSA-N,CO[C@H]1[C@@H](O)C[C@@H](O[C@@H]1C)O[C@H]1[C@@H](O)C[C@@H](O[C@@H]1C)O[C@H]1[C@@H](O)C[C@@H](O[C@@H]1C)O[C@H]1CC[C@]2([C@@H](C1)CC[C@@H]1[C@@H]2C[C@@H](O)[C@]2([C@]1(O)CC[C@@H]2C1=CC(=O)OC1)C)C,-6.528732096,2.8722,794.965
,C6343,IYOAABYIFUXEPX-UHFFFAOYSA-N,O=C1C2CC3CC1CC(C2)C3,-2.511149629,2.0116,150.218
,C3163,IYSYLWYGCWTJSG-XFXZXTDPSA-N,OCCN(c1nc(c(o1)c1ccccc1)c1ccccc1)CC,-4.911595827,3.8272,308.374
,C3460,IYTUKSIOQKTZEG-UHFFFAOYSA-N,Brc1ccc(nc1)OCCCCCCCN1CCSC1.Cl,-4.576268934,4.9196,395.786
,C7743,IYTZFCYXBYJPPR-UHFFFAOYSA-N,CC(/[N+](=C/c1ccccc1)/[O-])(C)C,-1.570424831,2.9375,177.243
,C8441,IYUIRFKKWDARLN-UHFFFAOYSA-N,OC(=O)Cc1ccc(c(c1)Cl)O,-0.946608237,1.6727,186.592
,C8366,IYXGSMUGOJNHAZ-UHFFFAOYSA-N,N#CCn1c(C)ncc1[N+](=O)[O-],-1.008286602,1.14648,166.137
,C9275,IYYZUPMFVPLQIF-UHFFFAOYSA-N,CCC(=O)ON1C2CCC1CN(C2)C,0.25663476,0.5088,198.262
,C1420,IYZRHARBJQCJKZ-LVEZLNDCSA-N,CCOC(=O)CC(=O)OCC,-0.81999999,0.5027,160.168
,C360,IYZWUWBAFUBNCH-UHFFFAOYSA-N,c1ccc2c(c1)sc1c2cccc1,-4.3800001,4.0545,184.257
,C3713,IZEKFCXSFNUWAM-UHFFFAOYSA-N,OC(=O)/C=C/C(=O)O.OC(=O)/C=C/C(=O)O.OCC(CN1CCN(CC1)CC1COC2(O1)c1ccccc1C=Cc1c2cccc1)O,-4.334579155,1.0571,654.661
,C214,IZHAHTWHSFEUDL-CFILVAQYSA-N,Clc1cccc(c1c1ccccc1)Cl,-5.21,4.6604,223.098
,C3256,IZHAHTWHSFEUDL-UHFFFAOYSA-N,OCCN(c1nc(N2CCCCC2)c2c(n1)c(nc(n2)N(CCO)CCO)N1CCCCC1)CCO,-4.790596722,0.1124,504.626
,C4184,IZHBNGWJQRGLSY-AATRIKPKSA-N,C[C@@H]1C[C@@H](C(=O)N1c1ccccc1)NCCc1ccccc1.Cl,-3.978059758,4.2706,330.852
,C4185,IZIZIVWXNIFYHJ-UHFFFAOYSA-N,CC1CC(C(=O)N1c1ccccc1)NCCc1ccccc1.Cl,-3.978059758,4.2706,330.852
,C3577,IZJDOKYDEWTZSO-UHFFFAOYSA-N,CCOc1ccc(cc1)/C=C/CN1C2CCC1CN(C2)C(=O)CC,-4.463398743,3.0595,328.449
,C7616,IZKCXJLBEGEZTQ-UHFFFAOYSA-N,CC1C2CCC(C2)C(N1C)(C)C,-1.650613981,2.4531,167.291
,C5293,IZLPZXSZLLELBJ-UHFFFAOYSA-N,S=C=NCCc1ccccc1,-3.171428607,2.3319,163.239
,C2794,IZMJWGJGVGRWBW-UHFFFAOYSA-N,COc1ccc(cc1)CN1CCc2c(C1)cccc2NC(=O)c1ccc(c(c1)OC)OC,-5.371188361,4.5339,432.512
,C2426,IZMVXNJRIXIGGM-CUQLSPFUSA-N,CCCCSc1ccc(cc1)C(c1ccccc1)SCCN(C)C,-5.965858004,5.963,359.592
,C9292,IZNBPULXWXVBDC-UHFFFAOYSA-N,CCOC(=O)CCN(C)C,0.267779682,0.5012,145.2
,C5486,IZPZBYRDQNNRKA-UHFFFAOYSA-N,O=C(c1ccncc1)N/N=C/C=C/c1ccccc1,-3.04799096,2.9015,251.283
,C5755,IZRPKIZLIFYYKR-UHFFFAOYSA-N,CNCC(COc1c(ccc(c1C(=O)OCC)C)C(C)C)O,-2.875631529,2.6451,309.401
,C7670,IZTHVPMGJIGDKL-UHFFFAOYSA-N,CCCC1(C)OCC(O1)CO,-1.613633146,0.9104,160.211
,C5697,IZTQPCTXSWRFSB-UHFFFAOYSA-N,CN(CCOc1ccccc1Cc1ccccc1)C,-2.912721655,3.2178,255.355
,C3504,IZUKQUVSCNEFMJ-UHFFFAOYSA-N,CCN(CCC(c1ccccc1)(C1CCCCC1)O)CC.Cl,-4.535846118,4.9884,325.916
,C8329,IZUPBVBPLAPZRR-UHFFFAOYSA-N,CCOP(=O)(N(C)C)OP(=O)(N(C)C)OCC,-1.063526289,2.4154,288.218
,C694,IZXWCDITFDNEBY-UHFFFAOYSA-N,[O-][N+](=O)c1ccccc1[N+](=O)[O-],-3.0999999,2.5494,168.107
,C382,IZZWHVDZJOINFQ-UHFFFAOYSA-N,Clc1c(O)c(Cl)c(c(c1Cl)Cl)Cl,-4.2800002,4.6592,266.337
,C878,JACRWUWPXAESPB-QMMMGPOBSA-N,ClCc1ccc(cc1)F,-2.54,2.5645,144.574
,C2082,JAGDGWYCWWBCLL-UHFFFAOYSA-N,COC(=O)c1ccccc1Nc1c(Cl)ccc(c1Cl)C,-6.856121658,4.905,310.175
,C1388,JANJEPMDLDHTLL-UHFFFAOYSA-N,OC[C@@H](c1ccccc1)C(=O)O,-0.93000001,0.8471,166.174
,C4580,JANNQSLLUJUMEN-UHFFFAOYSA-N,CCCC(COC(=O)NCC)(COC(=O)NCC)C,-3.674894368,3.0668,274.357
,C2377,JAOYNCHGTPCSOJ-UHFFFAOYSA-N,Ic1ccc2c(c1)c(=O)n(c(n2)C)c1ccccc1,-6.067550791,3.2987,362.165
,C6842,JAQPGQYDZJZOIN-LQDWTQKMSA-N,N/C(=N\CC1CCCC1)/CSS(=O)(=O)O,-2.181890058,2.8509,252.354
,C5664,JAQUASYNZVUNQP-PVAVHDDUSA-N,C=CCOc1ccccc1C(=O)NCC,-2.937549631,2.392,205.253
,C3128,JAQUASYNZVUNQP-USXIJHARSA-N,c1ccc(cc1)CNCCc1ccccc1.O=C(Cc1ccccc1)N[C@@H]1C(=O)N2[C@@H]1SC([C@@H]2C(=O)O)(C)C,-4.94470079,4.5994,545.692
,C6909,JARKCYVAAOWBJS-UHFFFAOYSA-N,Oc1ccc2c(c1)[C@@]13CCCC[C@@H]3[C@H](C2)N(CC1)C,-2.145751928,3.0183,257.371
,C6908,JARYYMUOCXVXNK-CSLFJTBJSA-N,Oc1ccc2c(c1)[C@]13CCCC[C@H]3[C@@H](C2)N(CC1)C,-2.145751928,3.0183,257.371
,C1301,JAUBBHIDNRDRIK-UHFFFAOYSA-N,CCCCCC=O,-1.3,1.7656,100.159
,C9348,JAYAGJDXJIDEKI-PTGWOZRBSA-N,OC[C@H]1C[C@H](N[C@H]2C=C(CO)[C@H]([C@@H]([C@H]2O)O)O)[C@@H]([C@H]([C@@H]1O[C@@H]1O[C@H](CO)[C@H]([C@@H]([C@H]1O)O)O)O)O,0.303212161,-6.3618,497.491
,C6763,JAYCNKDKIKZTAF-UHFFFAOYSA-N,SC/C(=N\CC12CC3CC(C2)CC(C1)C3)/N.Cl,-2.24044025,3.9921,274.853
,C2216,JBCLGHRMQCEPFM-UHFFFAOYSA-N,OC[C@H]1O[C@@H](O[C@@H]2[C@@H](C)O[C@H](C[C@@H]2OC(=O)C)O[C@H]2[C@@H](O)C[C@@H](O[C@@H]2C)O[C@H]2[C@@H](O)C[C@@H](O[C@@H]2C)O[C@H]2CC[C@]3([C@@H](C2)CC[C@@H]2[C@@H]3C[C@@H](O)[C@]3([C@]2(O)CC[C@@H]3C2=CC(=O)OC2)C)C)[C@@H]([C@H]([C@@H]1O)O)O,-6.435624265,0.6131,985.116
,C201,JBDGDEWWOUBZPM-UHFFFAOYSA-N,Clc1ccccc1c1ccccc1Cl,-5.27,4.6604,223.098
,C1878,JBDOSUUXMYMWQH-UHFFFAOYSA-N,CCOC(=O)c1c[nH]c2c(c1=O)cc(c(c2)OCC1CC1)OCC1CC1,-8.094372969,3.2824,357.4
,C4675,JBDZQSSWXOTFDA-UHFFFAOYSA-N,OC1CCC(CC1)NCc1cc(Br)cc(c1N)Br,-3.621207295,4.159,378.103
,C313,JBIWCJUYHHGXTC-UZPHWJRLSA-N,S=C=Nc1cccc2c1cccc2,-4.5999999,3.5741,185.245
,C7162,JBLYKTBKSVPTJV-UHFFFAOYSA-L,CNNC(Cc1ccccc1)C,-1.987623962,2.1234,164.247
,C755,JBMKAUGHUNFTOL-UHFFFAOYSA-N,CN([C@@H]1C(=C(C(=O)N)C(=O)[C@]2([C@H]1[C@@H](O)[C@@H]1[C@@H](C)c3cccc(c3C(=O)C1=C2O)O)O)O)C,-2.8699999,0.3527,444.435
,C9309,JBMWOJWZSMCBJJ-QZQOTICOSA-N,CC(C[N+](C)(C)C)OC(=O)C1CC2CC[N+]1(C)CC2.[I-].[I-],0.280481435,-4.78,524.22
,C705,JBOPQACSHPPKEP-UHFFFAOYSA-N,Clc1cc2N=CNS(=O)(=O)c2cc1S(=O)(=O)N,-3.05,2.5654,295.723
,C2245,JBQMFBWTKWOSQX-UHFFFAOYSA-N,CCOC(=O)c1ccc(cc1)/N=N/C1C(=NN(C1=O)c1ccccc1)C,-6.351412219,3.2389,350.371
,C6815,JBSDYSSKUBAYBU-UHFFFAOYSA-N,CC(=O)Oc1c[nH]c2c1cccc2,-2.195837681,2.0932,175.184
,C7226,JBTGHKUTYAMZEZ-UHFFFAOYSA-N,OC(=O)C1CCc2c1cccc2,-1.938177112,1.801,162.185
,C7543,JBWMXRJDMMPGCX-UHFFFAOYSA-N,CCC(=O)N1C2CCC1C(=O)N(C2=O)c1ccccc1,-1.712420082,1.3323,272.299
,C9908,JBWSEIGJTHGZRV-UHFFFAOYSA-N,NC(=O)C#CC(=O)N,0.95044088,-0.639,112.087
,C2451,JCCCMAAJYSNBPR-UHFFFAOYSA-N,CCCCCCCOc1ccccc1NC(=O)OC(C[NH+](CC)CC)C.[Cl-],-5.909404438,0.9745,400.983
,C8543,JCCCTNJHSBDHRA-UHFFFAOYSA-N,O=C1Cc2ccccc2S(=O)(=O)N1,-0.85876186,1.4572,197.211
,C857,JCDADBBKUHSPFI-UHFFFAOYSA-N,CCc1cccs1,-2.5899999,2.3105,112.193
,C6457,JCDFYLCJMXKBNO-UHFFFAOYSA-N,CCC1(CC)C(=O)NC(=O)N=C1OC(C)C,-2.439713845,1.6305,226.272
,C2287,JCDRZCWRRLKLTB-UHFFFAOYSA-N,COC1CCN(CC1)CCCN1c2ccccc2Sc2c1cc(cc2)C(=O)C,-6.259840376,4.9957,396.546
,C5934,JCDVXGPHXXODML-UHFFFAOYSA-N,CNc1nc2c(o1)ccc(c2)Cl,-2.763206844,2.5959,182.607
,C9426,JCFRXWVRVBVWNY-UHFFFAOYSA-N,CNCCc1ccc(c(c1)O)O.Cl,0.361327319,2.0526,203.666
,C6560,JCICIFOYVSPMHG-UHFFFAOYSA-N,N/C(=N\CCCOCc1ccccc1)/CSS(=O)(=O)O,-2.366260689,3.2676,318.412
,C4480,JCKOFFJWBOVAAV-UHFFFAOYSA-N,CC([NH+](C)C)CC(c1ccccc1)c1ccccc1.[Cl-],-3.741183036,-0.2544,289.843
,C4293,JCKYGMPEJWAADB-UHFFFAOYSA-N,O=C1Cc2c(N1c1c(Cl)cccc1Cl)cccc2,-3.881958079,4.2792,278.133
,C2137,JCLHQFUTFHUXNN-UHFFFAOYSA-N,Cc1oc(c(c1)C(=O)c1cc(I)c(c(c1)I)O)C,-6.698996906,4.0422,468.026
,C7970,JCLWQYMAWWJMSX-UHFFFAOYSA-N,ClCCN(c1ccc(cc1)CCCC(=O)O)CCCl,-1.391507956,3.3779,304.212
,C536,JCONBDKVSVCZHB-UHFFFAOYSA-N,CCOC(=O)C(c1c(=O)oc2c(c1O)cccc2)c1c(=O)oc2c(c1O)cccc2,-3.6600001,3.0056,408.358
,C6743,JCQLYHFGKNRPGE-FCVZTGTOSA-N,OCC(COc1cccc(c1)CC)O,-2.251408128,0.981,196.243
,C5978,JCRIVQIOJSSCQD-UHFFFAOYSA-N,CC(CCNCCSS(=O)(=O)O)CCCC(C)C,-2.733083375,4.4362,297.478
,C9408,JCUQWSIALJCIEE-UHFFFAOYSA-N,OC[C@H]1O[C@]([C@H]([C@@H]1O[C@@H]1O[C@H](CO)[C@@H]([C@@H]([C@H]1O)O)O)O)(O)CO,0.348690266,-5.3956,342.296
,C6649,JCUYNWANICHYHR-UHFFFAOYSA-N,CNC(CC1CCCCC1)C,-2.312722619,2.9556,155.28
,C8689,JCZOOFVQWBRCAL-ZROIWOOFSA-N,ClC1CS(=O)(=O)CC1Cl,-0.68662708,1.7104,189.06
,C2975,JCZYXTVBWHAWLL-UHFFFAOYSA-N,ClCC[NH+](Cc1ccccc1)CC=Cc1ccccc1C.[Cl-],-5.13756077,0.3361,336.299
,C5655,JDCJFONQCRLHND-UHFFFAOYSA-N,CCN1CCN(CC1)CC(=O)N/N=C\c1ccc(o1)[N+](=O)[O-],-2.942641706,1.0653,309.321
,C1818,JDFQJYHRSPYWNQ-UHFFFAOYSA-N,Fc1ccc(cc1)C(c1ccc(cc1)F)CCCN1CCC(CC1)n1c(=O)[nH]c2c1ccc(c2)Cl,-8.87831222,6.4483,495.991
,C3044,JDGBARYFQADTHZ-KCWPWBDNSA-M,Fc1ccc(cc1)CC1Nc2cc(Cl)c(cc2S(=O)(=O)N1)S(=O)(=O)N,-5.051934928,4.7278,405.852
,C3905,JDJRKRKGKINSID-UHFFFAOYSA-N,OC(=O)C(c1ccc2c(c1)nc(o2)c1cccc(c1)C)C,-4.17272491,3.9913,281.306
,C4766,JDLKFOPOAOFWQN-SECBINFHSA-N,C=CC1C[N+]2(C)CCC1C[C@@H]2[C@H](c1ccnc2c1cc(OC)cc2)O.[Cl-],-3.565325694,0.2806,374.904
,C2448,JDMBNZQEQLWXRA-UHFFFAOYSA-N,Cc1nc(Cc2ccc3c(c2)OCO3)c2c(c1)cc1c(c2)OCO1.Cl,-5.91915094,4.3934,357.788
,C1417,JDNAJAXZNLKSTI-UHFFFAOYSA-N,C=CCS[S@@](=O)CC=C,-0.82999998,2.621,162.273
,C6656,JDPIYUBQEKGSRE-UHFFFAOYSA-N,Brc1cnccc1OCCCCCNCCSS(=O)(=O)O,-2.309062805,3.9905,399.324
,C5881,JDRXPVCGKNGPAX-UHFFFAOYSA-N,Fc1ccc(c(c1)Cl)C1(OC1Cl)C(=O)N,-2.791645494,2.4551,250.054
,C5154,JDYPDROIHIKNOT-UHFFFAOYSA-M,SC/C(=N\CCCC12CC3CC(C2)CC(C1)C3)/N.Cl,-3.27718646,4.7723,302.906
,C3690,JEAWPIKEEQZLJQ-UHFFFAOYSA-N,Clc1ccc(cc1)C(c1ccccc1Cl)OCC[NH+](C)C.[Cl-],-4.35575263,0.2479,360.706
,C4113,JECMVFPDLRRCIS-UHFFFAOYSA-N,N/C(=N\CC1CCCCCC1)/CSP(=O)(O)[O-].[Na+],-4.034841113,3.2784,302.306
,C6352,JEIZLWNUBXHADF-QMMMGPOBSA-N,OC(c1nc2c([nH]1)cccc2)c1ccccc1,-2.503184968,2.6446,224.258
,C8063,JEJOFYTVMFVKQA-UHFFFAOYSA-N,O=C(COc1ccc(cc1)F)OCC[NH+](C)C.[Cl-],-1.30372807,-3.1038,277.72
,C1493,JELNWDOXWGBBLO-DHZHZOJOSA-N,CC(=O)C[C@@H]1CCCCN1,-0.44999999,1.4364,141.211
,C5445,JEPNDMLVRFWZTG-UHFFFAOYSA-N,Clc1ccc2c(n1)C(=NC(C(=O)N2)O)c1ccccc1Cl,-3.070300819,2.0699,322.146
,C4445,JEPRBUKYZNSROP-UHFFFAOYSA-N,CCC(=O)N1C(C)CN(CC1C)C/C=C/c1ccccc1,-3.766805759,2.9068,286.412
,C4495,JERZAOOJWPHIDG-UHFFFAOYSA-N,ClCCN(c1cc(ccc1C)C(=O)N)CCCl,-3.729488454,3.0782,275.174
,C2849,JESIHYIJKKUWIS-UHFFFAOYSA-N,OC(=O)c1cc(ccc1O)S(=O)(=O)[O-].COc1cc2c(cc1OC)CC[NH+](C2C(Cc1ccc(cc1)[N+](=O)[O-])C)C,-5.288398281,5.7704,588.626
,C3294,JEUHEOPRPYQCHO-UHFFFAOYSA-M,CCC(c1ccc(c(c1)C(CC)C)O)C,-4.744017312,4.4192,206.324
,C7936,JEUPZKBFJZDULG-UHFFFAOYSA-M,Cc1ccc(cc1)C(O)C,-1.428037866,2.0483,136.191
,C9673,JEYCTXHKTXCGPB-UHFFFAOYSA-N,N#CCCNCCSP(=O)(O)[O-].[Na+],0.634193899,1.14468,232.173
,C7880,JFBCNQQUKQOJPP-UHFFFAOYSA-N,CC[N+]1(CC)C(C)CCCC1C.[Br-],-1.466871092,-0.2333,250.219
,C745,JFCQEDHGNNZCLN-UHFFFAOYSA-N,Cc1nc2ccccc2c(=O)n1c1ccccc1C,-2.9200001,3.0025,250.295
,C6836,JFDZBHWFFUWGJE-UHFFFAOYSA-N,CCCCCC(COC(=O)N)COC(=O)N,-2.184168229,2.7741,232.277
,C1644,JFGILDJCNBOAGG-UHFFFAOYSA-N,OC(=O)CCCC(=O)O,1,0.3259,132.115
,C1372,JFGXCMKVTZAJMD-UHFFFAOYSA-N,N#Cc1ccccc1,-1,1.55828,103.121
,C5872,JFIMDKGRGPNPRQ-UHFFFAOYSA-N,CCC(=O)N1C2CCC1CN(C2)CCC(=O)c1ccccc1,-2.796461597,2.2204,300.395
,C2141,JFIOVJDNOJYLKP-UHFFFAOYSA-N,OC(c1ccccc1)(c1ccccc1)C1CCCC(N1)C(c1ccccc1)(c1ccccc1)O,-6.68620951,5.6981,449.583
,C3,JFJVYCLGHWPODH-UHFFFAOYSA-N,Clc1cc(c(c(c1Cl)Cl)Cl)c1c(Cl)c(Cl)c(c(c1Cl)Cl)Cl,-10.26,9.2342,464.213
,C3126,JFJZZMVDLULRGK-URLMMPGGSA-O,Clc1cc(Sc2cc(Cl)cc(c2O)Cl)c(c(c1)Cl)O,-4.949436349,5.8626,356.052
,C5515,JFKJWWJOCJHMGV-WCCKRBBISA-N,OC(=O)CNC(=O)c1cccc(c1)I,-3.030471348,1.4965,305.069
,C1857,JFKZWPHLKRLWGY-HPJBNNNXSA-N,COc1cc2CCN([C@@H]3c2cc1Oc1cc(ccc1O)C[C@@H]1c2c(CC[N+]1(C)C)cc(c(c2Oc1ccc(C3)cc1)O)OC)C,-8.327264912,6.5977,609.731
,C9784,JFLIEFSWGNOPJJ-JTQLQIEISA-N,CCOC(=O)[C@H](CS)N.Cl,0.731267619,1.3089,185.672
,C3752,JFNWFXVFBDDWCX-UHFFFAOYSA-N,COc1cc(/C=C/C(CCN2CCN(CC2)c2ccc(cc2)F)O)cc(c1OC)OC.Cl.Cl,-4.288644504,5.0448,503.434
,C6986,JFPVXVDWJQMJEE-IZRZKJBUSA-N,O=C(Cc1ccccc1)N[C@H](C(=O)O)CCC(=O)N,-2.095730097,1.1552,264.277
,C554,JFSPBVWPKOEZCB-UHFFFAOYSA-N,Nc1ccc(cc1)S(=O)(=O)N(c1onc(c1C)C)C(=O)C,-3.5899999,3.2774,309.341
,C4889,JFSREJNHMRLMQA-UHFFFAOYSA-N,CO/N=C(\C(=O)N[C@@H]1C(=O)N2[C@@H]1SCC(=C2C(=O)O)COC(=O)N)/c1ccco1,-3.46699044,0.4931,424.385
,C629,JFTLKSYFPKTYDE-UHFFFAOYSA-N,O=C(c1ccoc1C)Nc1ccccc1,-3.3,2.9133,201.221
,C4143,JFUUKHUKGAQKIW-UHFFFAOYSA-N,c1ccc(cc1)CN1CCN2C(C1)CCc1c2cccc1.Cl.Cl,-4.009138251,4.9305,351.313
,C9757,JFXIIJKNDNHSFL-UHFFFAOYSA-N,CCCNCCSS(=O)(=O)O,0.700529748,1.9937,199.292
,C8052,JGDCRWYOMWSTFC-AZGSIFHYSA-N,CC(=O)NC(c1ccccc1)NC(=O)C,-1.314383429,1.7392,206.241
,C7847,JGDLWBTULYDFPC-UHFFFAOYSA-N,OCCN1CC2CCC(C1)N2C(=O)CC,-1.49570598,-0.0603,212.289
,C4882,JGFCZGSHTBKQHF-UHFFFAOYSA-N,O[C@H]1CC[C@]2([C@@H](C1)CC[C@@H]1[C@@H]2[C@H](O)C(=O)[C@]2([C@]1(O)CC[C@@H]2c1ccc(=O)oc1)C)C,-3.473501578,2.3917,416.507
,C3928,JGFZITGNFAVSKU-UHFFFAOYSA-N,CCCCNC(=O)OCC(CC(C)C)(COC(=O)N)C,-4.154625816,3.7516,288.383
,C5904,JGGHXZUTECPTAK-UHFFFAOYSA-N,CCCc1ccc(cc1)OCC(CO)O,-2.775008785,1.3711,210.27
,C6212,JGHZJRVDZXSNKQ-UHFFFAOYSA-N,CSc1c(C)cc(cc1C)O,-2.588475668,2.7309,168.256
,C6439,JGJCNZJNWCAVMH-UHFFFAOYSA-L,Clc1ccc2c(c1)CNOC2,-2.452745149,2.2036,169.608
,C599,JGMFEVONQBBJBM-UHFFFAOYSA-N,CCCCCCCC(=O)OC,-3.3900001,2.5199,158.238
,C9336,JGMQHDNPUCPRQE-UHFFFAOYSA-M,C[N+](CCC[n+]1ccc(cc1)C(c1ccccc1)c1ccccc1)(C)C.[Br-].[Br-],0.295569779,-1.7414,506.316
,C7748,JGOAIQNSOGZNBX-UHFFFAOYSA-N,NC(=O)OCC(C(C)(C)C)COC(=O)N,-1.569582916,2.2399,218.25
,C7724,JGSARLDLIJGVTE-MBNYWOFBSA-N,[O-]c1ccc2c(c1)oc(=O)cc2C.[Na+],-1.580162929,2.2452,198.151
,C3844,JGTYANSBOIVAMH-UHFFFAOYSA-N,CCN(CCOC(=O)C(c1ccccc1)c1ccccc1)CC,-4.216891655,3.7035,311.418