Name,Compound ID,InChIKey,SMILES,logS,logP,MW
,C4103,NIZHAUDFIOIGPX-UHFFFAOYSA-N,COc1ccc2c(c1O)c1cccc3c1[C@@H](C2)N(C)CC3.Cl,-4.042779156,3.8928,317.81
,C9189,NJBFOOCLYDNZJN-UHFFFAOYSA-N,OS(=O)(=O)Cc1ccccc1,0.118080336,2.1552,172.202
,C7184,NJDUWAXIURWWLN-UHFFFAOYSA-N,CCn1c(C)cnc1[N+](=O)[O-],-1.970663286,1.6428,155.155
,C6894,NJEKDDOCPZKREE-UHFFFAOYSA-N,BrCCC(=O)N1CCN(CC1)C(=O)CCBr,-2.154798482,1.103,356.054
,C3926,NJHVMXFNIZTTBV-UHFFFAOYSA-N,O=C1C(c2ccc(cc2)Cl)C(=O)c2c1cccc2,-4.155578052,3.5028,256.684
,C5823,NJMYODHXAKYRHW-BLLMUTORSA-N,CCC(c1ccccc1)CC(=O)O,-2.834342736,2.6549,178.228
,C7548,NJNXVQXOUUIOBZ-UHFFFAOYSA-N,OC(C(Br)(Br)Br)O,-1.708235029,1.1356,298.756
,C2358,NJQADTYRAYFBJN-UHFFFAOYSA-N,OCCN1CCN(CC1)CC/C=C/1\c2ccccc2Sc2c1cc(cc2)C(F)(F)F,-6.098809171,4.4775,434.518
,C2649,NJVOZLGKTAPUTQ-UHFFFAOYSA-M,OCC(c1ccc2c(c1)CCc1c2cccc1)C,-5.578528068,3.548,238.324
,C4557,NJXDTGLUPRKMFN-UHFFFAOYSA-N,BrC1C(=O)C2(C(C1CC2)(C)C)C,-3.693059672,2.7751,231.13
,C2643,NKANXQFJJICGDU-QPLCGJKRSA-N,Cl[Sn](c1ccccc1)(c1ccccc1)c1ccccc1,-5.585999597,2.8923,385.466
,C4911,NKAYCEYKHSRZCE-UHFFFAOYSA-N,O=C(c1ccccc1C(=O)O)Cc1ccccc1,-3.44719057,2.8102,240.254
,C2247,NKBASRXWGAGQDP-UHFFFAOYSA-N,CC/C(=C(\c1ccccc1)/c1ccc(cc1)OCCN(C)C)/c1ccccc1,-6.348311865,5.9961,371.515
,C3093,NKDDWNXOKDWJAK-UHFFFAOYSA-N,c1ccc(cc1)CCCN1CCN2C(C1)CCc1c2cccc1.Cl,-4.999887309,4.5611,342.905
,C8141,NKEGDQGNYVIXQQ-UHFFFAOYSA-N,Clc1ccc(c(c1)C(=O)O)O,-1.236950199,1.7438,172.566
,C1602,NKGDBNZWJKTIEF-UHFFFAOYSA-N,COCOC,0.47999999,0.2367,76.0944
,C7437,NKGPJODWTZCHGF-KQYNXXCUSA-N,C=CCOC1(OCCN(C1)C)c1ccccc1.Cl,-1.742394283,2.7439,269.767
,C4927,NKIJDWIHUKJRGW-UHFFFAOYSA-N,C[NH+](CCCC1(c2ccccc2)[NH+](C)Cc2c1cccc2)C.[Cl-].[Cl-],-3.437984704,-3.5396,367.356
,C7027,NKJIFDNZPGLLSH-UHFFFAOYSA-N,OC[C@H]1O[C@H]([C@@H]([C@@H]1O)O)n1cnc2c1[nH]cnc2=S,-2.071204277,-0.8996,284.292
,C3447,NKJOXAZJBOMXID-UHFFFAOYSA-N,CCCC(COC(=O)N(C)C)(COC(=O)NCC(C)C)C,-4.585733686,3.2641,302.41
,C7207,NKNPHSJWQZXWIX-DCVDGXQQSA-N,N#Cc1ccc(cc1)[N+](=O)[O-],-1.953659428,1.98968,148.119
,C2125,NKNVOKGUNUZJFC-UHFFFAOYSA-N,CCCCCCCCOCCCCCCCC,-6.732951229,5.724,242.441
,C1724,NKOLMUVZDOHNNB-UHFFFAOYSA-N,CC[C@@H]1C[C@H]2CC[C@H](O2)[C@H](C)C(=O)O[C@@H](CC)C[C@@H]2CC[C@@H](O2)[C@@H](C)C(=O)O[C@@H](C[C@@H]2O[C@H]([C@@H](C(=O)O[C@H](C[C@H]3O[C@@H]([C@H](C(=O)O1)C)CC3)CC)C)CC2)CC,-13.1457164,7.5824,793.035
,C7507,NKOPQOSBROLOFP-UHFFFAOYSA-N,CC(c1[nH]c2c(n1)n(C)c(=O)n(c2=O)C)C,-1.731940645,0.0837,222.244
,C3555,NKPKVNRBHXOADG-UHFFFAOYSA-N,OC(=O)CCc1ccc2c(c1)nc(s2)c1ccccc1,-4.480575962,3.9805,283.345
,C7865,NKPPORKKCMYYTO-DHZHZOJOSA-N,Cc1n[nH]c(=S)[nH]c1=O,-1.481891825,0.1359,143.167
,C9849,NKTOLZVEWDHZMU-UHFFFAOYSA-N,C1CN2CCOB(O1)OCC2,0.804166742,-0.7118,156.975
,C174,NKUIGIUMTOAMIW-UHFFFAOYSA-N,COc1ccc2c(c1)c(CC(=O)O)c(n2C(=O)/C=C/c1ccccc1)C,-5.54,3.939,349.38
,C1226,NKWCGTOZTHZDHB-UHFFFAOYSA-N,Cc1ccc(c(c1)O)C,-1.54,2.009,122.164
,C5326,NKWOBFAONPVDDE-UHFFFAOYSA-N,O=Cc1csc(n1)c1ccc(s1)[N+](=O)[O-],-3.147669112,3.1155,240.259
,C9132,NLBUEDSBXVNAPB-DFQSSKMNSA-N,OC(=O)c1cnc[nH]1,0.029622126,0.1079,112.087
,C4650,NLGFLXKEBMNEDE-UHFFFAOYSA-N,N#CC(=NNc1ccccc1[N+](=O)[O-])C#N,-3.637041481,2.00606,215.168
,C3595,NLHHRLWOUZZQLW-UHFFFAOYSA-N,Oc1ccc2c(c1)[C@]13CCCC[C@H]3[C@@H](C2)N(CC1)CC1CC1,-4.448096413,3.7985,297.434
,C4918,NLKSFKLPWZLDGG-UHFFFAOYSA-N,CCN(c1c(C)n(c2ccccc2)c(=O)n(c1=O)CC)CC,-3.441702355,2.1737,301.383
,C1575,NLLGJEMIZSAJFN-AAFOHLTDSA-L,C=CC#N,0.15000001,0.69598,53.0626
,C4201,NLMDJJTUQPXZFG-UHFFFAOYSA-N,O=c1n(C)c2ccccc2[nH]c2c1cccc2,-3.963367801,2.582,224.258
,C9183,NLQAPNFYYXMZEG-UHFFFAOYSA-N,OC[C@H]([C@H]([C@@H]([C@H](C(S(=O)(=O)[O-])Nc1ccc(cc1)S(=O)(=O)c1ccc(cc1)NC(S(=O)(=O)[O-])[C@@H]([C@H]([C@@H]([C@@H](CO)O)O)O)O)O)O)O)O.[Na+].[Na+],0.10752026,-2.654,780.704
,C9603,NLRFFZRHTICQBO-UHFFFAOYSA-N,C1NCCOCCOCCNCCOCCOC1,0.581118915,-0.0968,262.346
,C5152,NLVFBUXFDBBNBW-PBSUHMDJSA-N,CCCCC(COC(=O)NCC)(CO)CC,-3.277883391,2.7023,231.332
,C7297,NLVVRLKFCOJPRR-NYHCBIMJSA-M,CCN(C(=O)CNC(=O)c1cc(OC)c(c(c1)OC)OC)CC,-1.889873785,1.7015,324.372
,C9388,NLXLAEXVIDQMFP-UHFFFAOYSA-N,NC[C@H]1O[C@H](O[C@@H]2[C@@H](N)C[C@H]([C@@H]([C@H]2O)O[C@H]2O[C@H](CO)[C@H]([C@@H]([C@H]2O)N)O)N)[C@@H](C[C@@H]1O)N,0.330199815,-2.7943,467.514
,C4031,NLYNIRQVMRLPIQ-XQLAAWPRSA-N,C=CC1C[N+]2(CC)CCC1C[C@@H]2[C@H](c1ccnc2c1cc(OC)cc2)O.[Cl-],-4.087451023,0.6707,388.931
,C9871,NLYNUTMZTCLNOO-UHFFFAOYSA-N,[Cl-].[NH4+],0.842278477,-2.6198,53.4915
,C3253,NMJFPRRGKVHVRB-UHFFFAOYSA-M,CCO[C@H]1O[C@@H]2O[C@@]3(C)CC[C@@H]4[C@]2([C@H]([C@H]1C)CC[C@H]4C)OO3,-4.80037747,3.2309,312.401
,C472,NMJJFJNHVMGPGM-UHFFFAOYSA-N,CON(C(=O)Nc1ccc(c(c1)Cl)Br)C,-3.9200001,3.2006,293.545
,C9593,NMJLIXOMSLNUGE-UHFFFAOYSA-N,CC(=O)CCC[N+](C)(C)C.[I-],0.566803205,-1.9342,271.139
,C1281,NMJZLJAMPZSVAN-UHFFFAOYSA-N,CCCCOC=O,-1.37,1.5954,102.132
,C9274,NMPSTUCZULEAMJ-UHFFFAOYSA-N,NCCCCCCNCCSS(=O)(=O)O.Br,0.255183951,3.7612,337.298
,C2829,NMQCHRIESWXCLN-UHFFFAOYSA-N,O1CCN(CC1)CC1COC2(O1)c1ccccc1CCc1c2cccc1.OC(=O)C(=O)O,-5.312472584,1.8274,441.474
,C3956,NMRDXFFPHGFGSX-UHFFFAOYSA-N,CCC(=O)OC1(CCN(CC1)C(CC)C)c1ccccc1.Cl,-4.136476766,4.4693,325.873
,C4561,NMRPBPVERJPACX-MRVPVSSYSA-N,C[NH+](CCN1c2cc(Cl)ccc2OC(C1=O)c1ccccc1)C.[Cl-],-3.690503625,-0.9798,367.27
,C4395,NMTBSNPBIGRZBL-UHFFFAOYSA-N,CCc1cc2=C(NCC(=O)N=c2s1)c1ccccc1,-3.8086771,0.9808,270.349
,C1077,NMTMZLCCIHLJED-UHFFFAOYSA-N,CCCCC[C@@H](CC)O,-1.98,2.3376,130.228
,C4160,NMTZXNJYQSPJGV-UHFFFAOYSA-N,[O-][N+](=O)c1ccc(cc1)n1cc(nc1C)[N+](=O)[O-],-3.997553697,3.0435,248.195
,C6849,NMUINCUJOZFODB-UHFFFAOYSA-N,Brc1ccc(nc1)OCCCCNCCSS(=O)(=O)O,-2.17585573,3.6004,385.298
,C9645,NMUSYJAQQFHJEW-ARQDHWQXSA-N,NCCCNCC(CSP(=O)(O)O)O,0.61217254,0.2028,244.249
,C1392,NMUSYJAQQFHJEW-KVTDHHQDSA-N,COc1cnc2c(n1)ncnc2,-0.91000003,0.4284,162.149
,C8855,NMVPEQXCMGEDNH-TZVUEUGBSA-N,OC[C@H]1O[C@H]([C@H]([C@@H]1O)O)n1cnc(nc1=O)N,-0.438660983,-2.5868,244.205
,C8856,NMWQEPCLNXHPDX-UHFFFAOYSA-N,OC[C@H]1O[C@H]([C@@H]([C@@H]1O)O)n1cnc(nc1=O)N,-0.438368102,-2.5868,244.205
,C5251,NMWSKOLWZZWHPL-UHFFFAOYSA-N,O=C1[C@@H](NC(=O)/C(=N\OC(C(=O)O)(C)C)/c2csc(n2)N)[C@@H]2N1C(=C(CS2)C[n+]1ccccc1)C(=O)[O-].O.O.O.O.O,-3.205984915,-0.7107,636.652
,C4020,NMWSVYJLYUFTPR-UHFFFAOYSA-K,CC(c1nnc(s1)NS(=O)(=O)c1ccccc1)(C)C,-4.094203661,3.7902,297.396
,C256,NNADEMKNXDZEKW-UHFFFAOYSA-N,Clc1cccc(c1)c1ccccc1,-4.8800001,4.007,188.653
,C4155,NNBFNNNWANBMTI-UHFFFAOYSA-M,I[Bi](I)I.C=CC1CN2CCC1CC2C(c1ccnc2c1cc(OC)cc2)O.I,-4.000846883,6.7664,1042.02
,C2980,NNBPVTKXDTWSDW-UHFFFAOYSA-N,C[NH+]1C2CCC1CC(C2)OC(=O)C(=C)c1ccc(cc1)C(C)(C)C.[Cl-],-5.131260792,1.3218,363.921
,C8315,NNBZCPXTIHJBJL-AOOOYVTPSA-N,[O-]S(=O)(=O)O.CCN(c1ccc(cc1)/C(=C/1\C=CC(=[N+](CC)CC)C=C1)/c1ccccc1)CC,-1.08156243,6.0394,482.635
,C6542,NNCOKSDPKDOAOW-UHFFFAOYSA-N,CC([NH2+]CC(COc1c2oc(cc2c(c2c1occc2=O)O)C)O)C.[Cl-],-2.377307394,-1.7313,383.823
,C218,NNCOZXNZFLUYGG-UHFFFAOYSA-N,C1CC[C@H]2[C@@H](C1)CCCC2,-5.1900001,3.3668,138.25
,C7334,NNGROHQONJXNMS-UHFFFAOYSA-N,COc1ccc2c(c1)c(c[nH]2)C1CCCN1C,-1.861255419,2.8811,230.306
,C6014,NNHSMCWCONKKMB-UHFFFAOYSA-N,CCOC(=O)C1(CCN(CC1)CCOCC1CCCO1)c1ccccc1,-2.705484695,2.7168,361.475
,C7832,NNJPGOLRFBJNIW-HNNXBMFYSA-N,COc1cccc(c1)CCCNCCSS(=O)(=O)O,-1.508529022,3.2251,305.414
,C6165,NNJVILVZKWQKPM-UHFFFAOYSA-N,Cc1cccnc1NC(=O)c1ccccc1N,-2.61617369,2.8787,227.262
,C7029,NNKQQOOMOWTHNQ-OQKDUQJOSA-N,CN[C@H]1CCc2c(c3c1cc(=O)c(cc3)OC)c(OC)c(c(c2)OC)OC,-2.070056002,3.3458,371.427
,C1151,NNKXWRRDHYTHFP-HZQSTTLBSA-N,CCN(CC(=O)Nc1c(C)cccc1C)CC,-1.76,2.6567,234.337
,C1813,NNPPMTNAJDCUHE-UHFFFAOYSA-N,CCCCCCCCOc1ccc(c2c1cccc2)C(=N)[NH+](CCC)CCC.[Cl-],-8.933846013,2.7131,419.043
,C8884,NNRDTDHBXOGJDV-KTKRTIGZSA-N,C=C[C@H]1CN2CC[C@H]1C[C@H]2[C@@H](c1ccnc2c1cc(OC)cc2)O.Cl.Cl,-0.397765163,4.7151,397.339
,C874,NNTDPGZVKDQKLS-UHFFFAOYSA-N,CC(C)C,-2.55,1.6623,58.1222
,C3082,NNWSPTNNCFFSLD-UHFFFAOYSA-N,OC1C=CC2=C(Cc3c1cccc3)CCC=C2,-5.008412382,3.4789,224.298
,C2909,NNYBQONXHNTVIJ-UHFFFAOYSA-N,CCN(CCCN1c2ccccc2NCc2c1cccc2)CC,-5.216442462,4.6851,309.448
,C6949,NNYJOYIOFGFCFP-UHFFFAOYSA-N,OCC(COc1cccc(c1)C)(CO)CO,-2.121634705,0.3371,226.269
,C3597,NOAOISNWUKHGKB-UHFFFAOYSA-N,CCC1(OCCc2c1[nH]c1c2cccc1CC)CC(=O)O,-4.446431704,3.383,287.354
,C4281,NOEMEJJCNDUHJT-UHFFFAOYSA-N,C[NH+]1C2CCC1CC(C2)OC(=O)C(=C)c1cccc(c1)Cl.[Cl-],-3.895866902,0.6777,342.26
,C2190,NOESKWHLOMLRIG-UHFFFAOYSA-L,CCCCCCCCCCCCCCCCCNCCSS(=O)(=O)O,-6.510963425,7.4551,395.664
,C6738,NOIIUHRQUVNIDD-UHFFFAOYSA-N,CC(Cc1[nH]c2c(n1)n(C)c(=O)n(c2=O)C)C,-2.252843822,0.1588,236.27
,C4258,NOIQZLIGXCQSEV-UHFFFAOYSA-N,C[N+]1(CC[N+]2(C)CCCC2)CC2CCCC(C1)C2.[I-].[I-],-3.914788613,-3.581,506.248
,C6955,NOJQZZWAGZQHAK-UHFFFAOYSA-L,O=C(NCc1ccccc1)CCNNC(=O)c1ccncc1,-2.118885738,2.1952,298.34
,C3299,NOMHBBFEJSVGSC-UHFFFAOYSA-N,COc1ccc2c(c1)cc1c(n2)cccc1,-4.740877719,3.3966,209.243
,C3434,NOOLISFMXDJSKH-AEJSXWLSSA-N,CC[N+]1(CCCCCC[N+]2(CC)CCOCC2)CCOCC1.[I-].[I-],-4.59623274,-3.7938,568.315
,C1339,NOPNPWGOSOEBRI-YEUQMBKVSA-N,ClCCS(=O)CCCl,-1.16,2.0784,175.077
,C882,NOQGZXFMHARMLW-UHFFFAOYSA-N,C[C@H]1CC[C@@H]([C@H](C1)O)C(C)C,-2.53,2.4395,156.265
,C3751,NOSIYYJFMPDDSA-UHFFFAOYSA-N,COc1cc(/C=C/C(CCN2CCN(CC2)c2ccccc2F)O)cc(c1OC)OC.Cl.Cl,-4.288644504,5.0448,503.434
,C1532,NOSZWUJZUTZABS-UHFFFAOYSA-N,CN(NC(=O)CCC(=O)O)C,-0.2,-0.1651,160.171
,C4765,NOTIQUSPUUHHEH-UXOVVSIBSA-N,CN(CCCN1c2ccccc2Sc2c1cc(cc2)C(=O)C)C,-3.565463273,4.5086,326.456
,C5238,NOWADDNUCMOPLH-UHFFFAOYSA-N,NC(=O)C(c1ccccc1)(CCN1CCCCC1)C,-3.214212183,2.9438,260.375
,C2323,NOXMCEHYBLYCTK-UHFFFAOYSA-N,CCC(=O)O[C@H]1CC[C@@H]2[C@]1(C)CC[C@H]1[C@H]2CC[C@@H]2[C@]1(C)C[C@@H](C)C(=O)C2,-6.167430567,5.166,360.53
,C6850,NOXNCSQBTYNMHD-UHFFFAOYSA-N,O=CNc1ccc(cc1)S(=O)(=O)c1ccc(cc1)NC=O,-2.175834472,4.1546,304.321
,C7470,NOYYDDKJNWKCEQ-UHFFFAOYSA-N,CC(c1cnc(n1C)[N+](=O)[O-])C,-1.756481115,1.9749,169.181
,C7363,NOZSPKHARJALMX-UHFFFAOYSA-N,CN(CCC(c1ccccn1)c1ccc(cc1)Cl)C.Cl,-1.837011158,4.6206,311.249
,C2010,NPDACUSDTOMAMK-UHFFFAOYSA-N,OC(C(C(=O)O)O)C(=O)O.CCCCOc1ccc(cc1)OCC(=O)N(C(N1CCCCC1)C)c1ccc(cc1)OC,-7.135861152,2.9333,590.662
,C2176,NPDBEUDAYBQLHV-UHFFFAOYSA-N,N#CC(c1cccc2c1cccc2)(CC=C(C)C)CCN1CCCCC1.Cl,-6.553787792,6.57338,382.969
,C699,NPDFXFLCEDDWEG-UHFFFAOYSA-N,Cc1ccc(cc1)Cl,-3.0799999,2.6484,126.583
,C8202,NPDPUYGJRPGBBN-UHFFFAOYSA-N,Cc1[nH]nc(c(=O)c1)N1CCOCC1,-1.183318788,-0.0201,195.218
,C8479,NPEHUZMVONIBGA-UHFFFAOYSA-N,OS(=O)(=O)O.OS(=O)(=O)O.OS(=O)(=O)O.CCN(c1ccc(c(c1)C)N)CCNS(=O)(=O)C.CCN(c1ccc(c(c1)C)N)CCNS(=O)(=O)C,-0.918390593,7.2952,836.994
,C6948,NPFWBBZIYDRDNJ-UHFFFAOYSA-N,CCCC(C(COC(=O)N)COC(=O)N)C,-2.122973769,2.63,232.277
,C5301,NPGJXAIEICLLSP-UHFFFAOYSA-N,CCCC(C(CC)CC)(CO)CO,-3.16766572,2.1937,188.307
,C7163,NPIJXCQZLFKBMV-YTGGZNJNSA-L,Cn1c(C)c(N2CCOCC2)c(=O)n(c1=O)c1ccccc1,-1.987003841,0.7462,301.34
,C9149,NPIYRIYFDCBMQV-UHFFFAOYSA-L,NCCCCNCCCSP(=O)(O)O.C.C,0.064106342,2.8943,274.361
,C9015,NPKOWFSBIXNSIE-UHFFFAOYSA-N,CC(=O)O[C@H]1C[C@@H]2CC[C@@H]3[C@@H]([C@]2(C[C@@H]1[N+]1(C)CCCCC1)C)CC[C@]1([C@H]3C[C@@H]([C@@H]1OC(=O)C)[N+]1(C)CCCCC1)C.[Br-].[Br-],-0.165946099,0.0361,732.67
,C4470,NPMCIHCQSNHBDX-UHFFFAOYSA-N,c1ccc(cc1)C1C[N+]2(COC[N+]34CCC(CC3)C(C4)c3ccccc3)CCC1CC2.[Br-].[Br-],-3.749415822,-1.108,578.422
,C4336,NPORIZAYKBQYLF-LREBCSMRSA-N,CCN(CCOCc1cc(Br)cc(c1OC)Br)CC,-3.852217838,4.0786,395.13
,C9885,NPPQSCRMBWNHMW-UHFFFAOYSA-N,CN(CCC#N)CCC#N,0.862690207,0.74556,137.182
,C9609,NPQXZJGCNCIZRO-UHFFFAOYSA-N,O[C@H]([C@H](C(=O)O)O)C(=O)O.OCc1cccnc1,0.586341563,-1.5487,259.213
,C1175,NPSSKLWIPCMJBU-UHFFFAOYSA-N,CCCC(COC(=O)N)(COC(=O)N)C,-1.67,2.384,218.25
,C2440,NPUGYWPZOLONFA-UHFFFAOYSA-N,C[NH+](CCCC1c2ccccc2CCc2c1cccc2)C.[Cl-],-5.937236153,-0.1542,315.88
,C5064,NPUKDXXFDDZOKR-NSHDSACASA-N,Cc1n(C)c(=O)n(c(=O)c1Br)Cc1ccccc1,-3.337899154,1.6662,309.159
,C9467,NPUZIGSOEWMFKK-UHFFFAOYSA-N,OC(c1ccccc1)C[NH2+]C.[Cl-],0.382710267,-3.0828,187.667
,C280,NPXVUKFDUUECTA-UHFFFAOYSA-N,CCOC(=O)c1cncn1[C@H](c1ccccc1)C,-4.7399998,2.6691,244.289
,C3422,NQAUNPZZVCXYEJ-UHFFFAOYSA-N,O=C1C(c2ccc(cc2)Br)C(=O)c2c1cccc2,-4.607369237,3.6119,301.135
,C2398,NQBIIZCLITWWOH-UHFFFAOYSA-N,C=CC[NH+]1CCc2c(C1CCc1ccc(cc1)[N+](=O)[O-])cc(c(c2)OC)OC.[Cl-],-6.022245949,2.0093,418.914
,C5896,NQDJXKOVJZTUJA-UHFFFAOYSA-N,CN(S(=O)(=O)c1ccc(cc1)Br)C,-2.781347788,2.7802,264.139
,C2536,NQEAWPKKPXTLGE-UHFFFAOYSA-N,COc1cc(O)cc2c1N(CCCN(C)C)c1c(S2)ccc(c1)Cl,-5.766279564,4.6736,364.89
,C664,NQERQCNWHNKCSA-UHFFFAOYSA-N,Cc1ccnc2c1[nH]c(=O)c1c(n2C2CC2)nccc1,-3.1900001,2.4783,266.298
,C7882,NQNZNONJZASOKL-UHFFFAOYSA-N,C=CCSC(C(=O)N)(C)C,-1.466472333,1.8698,159.249
,C1792,NQPJDJVGBDHCAD-UHFFFAOYSA-N,Brc1cccnc1OCCCCCNCCSSCCNCCCCCOc1ncccc1Br.Cl.Cl,-9.34170213,8.7464,709.428
,C8879,NQQVFXUMIDALNH-UHFFFAOYSA-N,N1CCN(CC1)c1ccccc1.Cl,-0.404422991,2.292,198.692
,C8348,NQRLPDFELNCFHW-UHFFFAOYSA-N,O=C1NCCCN1,-1.033914192,0.3469,100.119
,C791,NQRYJNQNLNOLGT-UHFFFAOYSA-N,OC(=O)c1nc(Cl)c(c(c1Cl)N)Cl,-2.75,2.9034,241.459
,C813,NQXRQSRTZHDMKI-UHFFFAOYSA-N,CC(=O)Nc1ccc(cc1)[N+](=O)[O-],-2.6900001,2.1494,180.161
,C1650,NQXUSSVLFOBRSE-UHFFFAOYSA-N,C1CCCNC1,1.0700001,1.0887,85.1475
,C2747,NRFGEDASJHBPPN-UHFFFAOYSA-N,N/C(=[NH+]/CC1CCCCCCC1)/CSSC/C(=[NH+]/CC1CCCCCCC1)/N.[Cl-].[Cl-],-5.445805907,-2.627,499.648
,C5947,NRFJZTXWLKPZAV-UHFFFAOYSA-N,Cc1ccc(c(c1)O)[N+](=O)[O-],-2.750511202,2.132,153.135
,C2098,NRGGMCIBEHEAIL-UHFFFAOYSA-N,CC(=O)Oc1c(Br)cc(cc1C(=S)Nc1ccc(cc1)Br)Cl,-6.815467205,5.6509,463.571
,C9083,NRGHCWQGTHPFTE-FVWCLLPLSA-N,CC(=O)NC1CCSC1=O,-0.063964515,0.5455,159.206
,C1605,NRHMKIHPTBHXPF-TUJRSCDTSA-M,CCc1ccccn1,0.50999999,1.644,107.153
,C6805,NRIXNDFJJSOBCR-UHFFFAOYSA-N,Nc1ccc2c(c1)[C@]13CCN4[C@H]1C[C@@H]1[C@@H]5[C@@H]3N2C(=O)C[C@@H]5OCC=C1C4,-2.209112505,2.2588,349.426
,C6998,NRJCXKSPPCEIAQ-UHFFFAOYSA-N,O[C@@H]1CC[C@]2([C@@H](C1)C[C@H]([C@@H]1[C@@H]2C[C@H](O)[C@]2([C@H]1CC[C@@H]2[C@@H](CCC(=O)[O-])C)C)O)C.[Na+],-2.087492026,2.114,430.553
,C6129,NRNCYVBFPDDJNE-UHFFFAOYSA-N,C=CCc1ccccc1OCC(CO)O,-2.643738467,1.1471,208.254
,C8246,NRPFNQUDKRYCNX-UHFFFAOYSA-N,Brc1ccc(nc1)OCCNCCSS(=O)(=O)O,-1.133000685,2.8202,357.245
,C6358,NRQVXWNPFZZDMQ-UHFFFAOYSA-N,O=C1N=C(OC1c1ccccc1)N,-2.50063522,0.7351,176.172
,C8147,NRSAHUUHMMVYTD-UHFFFAOYSA-N,COc1ccc(cc1)CC(=O)O,-1.231430051,1.3223,166.174
,C7927,NRUKOCRGYNPUPR-QBPJDGROSA-N,O=C1NC(=O)C2(C(C1CC2)(C)C)C,-1.434116238,1.4141,181.232
,C2541,NRVFDGZJTPCULU-UHFFFAOYSA-N,CC[NH+](CCOC(=O)n1c2ccccc2c2c1cccc2)CC.[Cl-],-5.751272856,-0.2921,346.851
,C3051,NRVIEWRSGDDWHP-UHFFFAOYSA-N,COc1cc(cc(c1O)OC)[C@H]1[C@H]2C(=O)OC[C@@H]2[C@@H](c2c1cc1OCOc1c2)O[C@@H]1O[C@@H]2CO[C@H](O[C@H]2[C@@H]([C@H]1O)O)c1cccs1,-5.043477723,2.7529,656.654
,C9699,NRVPCDAKWQWYRU-VAWYXSNFSA-N,SCCN(C)C.Cl,0.656296988,1.2798,141.663
,C2086,NRVYNZHIMCNVEP-UHFFFAOYSA-N,Clc1ccccc1CNCC1CCC(CC1)CNCc1ccccc1Cl.Cl.Cl,-6.845936943,8.065,464.299
,C7646,NRXQIUSYPAHGNM-UHFFFAOYSA-N,CN(/N=N/c1ccc(cc1)C(=O)N)C,-1.628184508,2.0461,192.218
,C4084,NRYIIIVJCVRSSH-UHFFFAOYSA-N,CC(N1CCC(CC1)C1CCCCC1)C.Cl,-4.056189981,4.427,245.832
,C547,NSAJZVJLTGQRGE-UHFFFAOYSA-N,N#Cc1cc(I)c(c(c1)I)O,-3.6099999,2.47308,370.914
,C5912,NSCLRALYUOMPCL-UHFFFAOYSA-N,CC(C(C(=O)O)C)c1ccccc1,-2.772416748,2.5108,178.228
,C9607,NSDGEQWRYXOZLN-UHFFFAOYSA-N,Cc1ccc(c(c1O)C)[N+](C)(C)C.[Br-],0.584734453,-0.7903,260.171
,C3010,NSDGGCIJILWODV-UHFFFAOYSA-L,C=CCc1ccc(c(c1)OC)OCc1ccccc1,-5.102199809,4.0027,254.324
,C5220,NSFWQVLIKNSZQT-UHFFFAOYSA-N,O=C1C=CC=CC1=c1sc2c([nH]1)cccc2,-3.227195555,2.3563,227.282
,C9430,NSFWWJIQIKBZMJ-CWFPLRNTSA-N,CCCC[N+](CCOCC[N+](CC)(C)C)(CC)CC.[Br-].[Br-],0.362209181,-3.236,434.294
,C5243,NSHIECYVKDXKIR-UHFFFAOYSA-M,OCC(c1ccccc1)(c1ccccc1)COC(=O)NC,-3.212329159,2.7119,285.338
,C5920,NSJXKAZYJJSKSI-UHFFFAOYSA-N,O=C1/C=C\C=C/[C@@H](OCC[C@H]([C@@H](C(=O)OC[C@]23[C@]4([C@H](O1)C[C@H]([C@]14CO1)O[C@@H]3C=C(CC2)C)C)O)C)[C@H](O)C,-2.766907247,2.3934,532.622
,C7498,NSKGQURZWSPSBC-VVPCINPTSA-N,Cc1cccc(c1)C(=O)Oc1cccc(c1)[N+](C)(C)C.[Br-],-1.736174623,0.4149,350.25
,C5703,NSLJAVZPTLLIER-UHFFFAOYSA-N,SCCNCCCCCOc1ccc(cn1)C.Cl,-2.908574634,3.6514,290.853
,C9401,NSMHQGXGMBMVIK-JTHROIFXSA-N,OC[C@H]1O[C@H]([C@@H]([C@@H]1O)O)O[C@H]1[C@H](O[C@H]2O[C@H](CN)[C@H]([C@@H]([C@H]2N)O)O)[C@@H](N)C[C@H]([C@@H]1O)N,0.3424881,-3.8511,454.473
,C8245,NSMWYRLQHIXVAP-OLQVQODUSA-N,CC1=NN(C(=O)CC1)CCc1ccncc1,-1.135606638,0.9959,217.267
,C1785,NSPMIYGKQJPBQR-UHFFFAOYSA-N,CCCCCCCCCOc1ccc(c2c1cccc2)C(=N)[NH+](CCC)CCC.[Cl-],-9.454721532,3.1032,433.07
,C1603,NSQYIEOSFPLTJA-UHFFFAOYSA-N,C[C@@H]1NC[C@H](NC1)C,0.49000001,0.6138,114.189
,C9835,NSSIGKVPZKVTNW-UHFFFAOYSA-N,c1ncn[nH]1,0.788504777,-0.1953,69.0653
,C787,NSSKAGXFUVOOHA-UHFFFAOYSA-N,CC(C1(C(C)C)C(=O)NC(=O)NC1=O)C,-2.77,1.3084,212.246
,C3890,NSWAMPCUPHPTTC-UHFFFAOYSA-N,SCCNCCCCCCOc1ccc(cn1)Br.Cl,-4.182297211,4.4956,369.749
,C3487,NSWIBRBCTIBPGG-UHFFFAOYSA-N,CCOc1c(OC)cccc1C(=O)OCC[NH+]1CCCCC1.[Cl-],-4.547807533,-0.1073,343.846
,C6294,NSXDSAVBBBKTAM-UHFFFAOYSA-N,CCOC(=O)c1ccccc1S(=O)(=O)NC(=O)Nc1nc(Cl)cc(n1)OC,-2.53867529,3.3704,414.821
,C7727,NSYSSMYQPLSPOD-UHFFFAOYSA-N,S1SCC(C1)N1CCCC1.OC(=O)C(=O)O,-1.577468903,0.9393,265.35
,C3453,NSYZCCDSJNWWJL-YXOIYICCSA-N,Clc1cccc2c1nc1ccccc1c2N,-4.580351812,4.2048,228.677
,C9449,NTBYINQTYWZXLH-UHFFFAOYSA-N,Oc1cc(C)oc(=O)c1,0.376368285,0.6538,126.11
,C2278,NTCYWJCEOILKNG-ROLPUNSJSA-N,CCOC(=O)CCC(=O)O[C@H]1[C@@H](O[C@@H](C[C@@H]1N(C)C)C)O[C@@H]1[C@@H](C)[C@H](O[C@@H]2O[C@@H](C)[C@@H]([C@](C2)(C)OC)O)[C@@H](C)C(=O)O[C@H](CC)[C@@]([C@@H]([C@H](C(=O)[C@@H](C[C@@]1(C)O)C)C)O)(C)O,-6.270897549,2.6798,862.053
,C661,NTHGIYFSMNNHSC-UHFFFAOYSA-N,[O-][N+](=O)c1ccc(c(c1)Cl)Cl,-3.2,3.4248,192
,C8737,NTHXOOBQLCIOLC-UHFFFAOYSA-N,O[C@@H]([C@@H](N(C)C)C)c1ccccc1.Cl,-0.598293505,2.4721,215.72
,C6396,NTIZESTWPVYFNL-UHFFFAOYSA-N,CC(CCO[N+](=O)[O-])C,-2.480878709,1.764,133.146
,C4289,NTJJPDBWQWPWKN-UHFFFAOYSA-N,OCC(CN(c1c(I)c(C(=O)NCC(CO)O)c(c(c1I)C(=O)NCC(CO)O)I)C(=O)C)O,-3.887068674,-0.8457,821.138
,C1263,NTJOBXMMWNYJFB-UHFFFAOYSA-N,CC(CC(=O)C)C,-1.42,1.6215,100.159
,C8176,NTKQTTAHVFXZJV-UHFFFAOYSA-N,CC(=O)Nc1oc(c(n1)C)C,-1.208448709,1.3228,154.166
,C5826,NTLSVAIWZWNKNB-UHFFFAOYSA-N,CCN1CCCC1CNC(=O)c1cc(c(cc1OC)N)S(=O)(=O)CC,-2.833191204,3.2759,369.479
,C6072,NTOIBZJBOAYNRO-UHFFFAOYSA-N,n1ccc(cc1)CC[NH+]1C=Cc2c1cccc2.[Cl-],-2.673306319,0.3982,258.746
,C3085,NTWZHQAXJSJOIB-UHFFFAOYSA-N,Clc1ccccc1CNCCCCNCc1ccccc1Cl.Cl.Cl,-5.006618536,7.0388,410.209
,C7402,NTZMSBAAHBICLE-UHFFFAOYSA-N,CCOc1ccc(cc1)COCC(CO)O,-1.818072373,0.9551,226.269
,C7610,NUEJYQRPPDNSDM-UHFFFAOYSA-N,OC(c1ccccc1)Cn1cncc1,-1.655595512,1.6167,188.226
,C7295,NUGLIYXAARVRPQ-UHFFFAOYSA-N,N#Cc1cc(ccc1C#N)[N+](=O)[O-],-1.892021863,1.86136,173.128
,C6935,NUIGSIPDCSDQDC-UHFFFAOYSA-L,CCCn1c(N)cc(=O)n(c1=O)CC,-2.13362261,0.6033,197.234
,C9040,NUJGJRNETVAIRJ-UHFFFAOYSA-N,[O-][N+](=O)c1nccn1CC(CO)O,-0.136750735,-0.3323,187.153
,C9459,NUJZVNHAGUEUAQ-UHFFFAOYSA-N,CC[N+](CCCC[N+](CC)(CC)CC)(CC)CC.[Br-].[Br-],0.378510059,-2.4724,418.294
,C941,NUKDUWOUXNVQNT-BGNBUWATSA-N,CCCCCCCC=O,-2.3599999,2.5458,128.212
,C3356,NUKVZKPNSKJGBK-SPIKMXEPSA-N,C=CCC(c1cccc2c1cccc2)C(=O)NNC(C)C,-4.672693434,4.3105,282.38
,C4313,NUKZAGXMHTUAFE-UHFFFAOYSA-N,O=C(/C=C/c1ccccc1)CCN1CCN(CC1)c1ccccc1F.Cl.Cl,-3.862923962,5.2272,411.34
,C3307,NUMYTLIHYKESKM-UHFFFAOYSA-N,OC(=O)/C=C\C(=O)O.OC(=O)/C=C\C(=O)O.OCCN1CCN(CC1)CCCN1c2ccccc2Sc2c1cc(cc2)C(=O)C,-4.733141952,2.8563,643.705
,C1067,NUNCOHUMTCDISK-AWEZNQCLSA-N,CCCCCC(=O)OC,-2,1.7397,130.185
,C5675,NUQDJSMHGCTKNL-UHFFFAOYSA-N,N#CSCc1ccc(cc1)[N+](=O)[O-],-2.930332246,2.83228,194.21
,C5382,NUQJOBPPCCFWJG-UHFFFAOYSA-N,COc1c2c(CC[C@@H](c3c2ccc(c(=O)c3)SC)N)cc(c1OC)OC,-3.109854247,4.1078,373.466
,C3648,NURQLCJSMXZBPC-UHFFFAOYSA-N,O=C(c1ccccc1O)OC1CCCCC1,-4.389191736,2.8817,220.264
,C6944,NUTCGOHCGOZXLH-UHFFFAOYSA-N,O=C(N1CN(c2ccccc2)C(=O)c2c1cccc2)CN1CCOCC1.Cl,-2.126281485,2.8396,387.86
,C1590,NUUIWQTXXMNXON-UHFFFAOYSA-N,Cc1cnccc1C,0.36000001,1.6984,107.153
,C4130,NUUUXJAVFDBNRA-UHFFFAOYSA-N,O=C(N1CC=Cc2c1cccc2)Nc1ccccc1,-4.020064666,3.8899,250.295
,C6966,NUVBSKCKDOMJSU-UHFFFAOYSA-N,OCC(COc1ccccc1Cl)(O)C,-2.110471462,1.4621,216.661
,C4844,NUVDQORZUXQNSV-UHFFFAOYSA-L,CCNCCC12CC3CC(C2)CC(C1)C3.Cl,-3.505682889,4.3953,243.816
,C949,NUXWIIFYEUCZKQ-UHFFFAOYSA-N,CCOC(=O)c1ccc(cc1)O,-2.3499999,1.5689,166.174