Name,Compound ID,InChIKey,SMILES,logS,logP,MW
,C4055,ZRCXCAQABNQEEL-UHFFFAOYSA-N,Nc1ccc(cc1)CCN1CC[C@]23[C@@H]([C@@H]1Cc1c3cc(cc1)O)CCCC2,-4.069369898,4.7946,362.508
,C4054,ZRGVQCBYFKYZQU-UHFFFAOYSA-N,Nc1ccc(cc1)CCN1CC[C@@]23[C@H]([C@H]1Cc1c3cc(cc1)O)CCCC2,-4.069369898,4.7946,362.508
,C5090,ZRIHAIZYIMGOAB-UHFFFAOYSA-N,COc1ccc(cc1)C1CCN(C1=O)N1CCCCC1.Cl,-3.319325468,3.0898,310.819
,C6877,ZRIHAIZYIMGOAB-ZCFIWIBFSA-N,CC[NH+]1CCCC1c1c[nH]c2c1cccc2.[Cl-],-2.163747133,0.4808,250.767
,C6826,ZRKWMRDKSOPRRS-UHFFFAOYSA-N,CCC(C1(CC)C(=O)NC(=O)NC1=O)C,-2.192349776,1.4525,212.246
,C929,ZRSNZINYAWTAHE-UHFFFAOYSA-N,CC[C@H](C1(CC)C(=O)NC(=O)NC1=O)C,-2.3900001,1.4525,212.246
,C1408,ZRWNRAJCPNLYAK-UHFFFAOYSA-N,O=NN(C(=O)N)C,-0.85000002,0.3786,103.08
,C1243,ZRWPUFFVAOMMNM-UHFFFAOYSA-N,COc1ccc(cc1)C=O,-1.49,1.5077,136.148
,C6878,ZRYGZUCHNAVIIG-UHFFFAOYSA-N,NC(=O)c1ccc(cc1)Br,-2.163435453,2.2483,200.033
,C9852,ZRZNJUXESFHSIO-JKZASVEESA-N,O=C1OC2=CCOC(C2=C1)O,0.812138182,-0.2979,154.12
,C8806,ZSBXGIUJOOQZMP-JLNYLFASSA-N,CCC(NC)(C)C.Cl,-0.501289641,2.5873,137.651
,C3383,ZSCDBOWYZJWBIY-UHFFFAOYSA-N,OCC(=O)O[C@@H]1C[C@@](C)(C=C)[C@@H](O)[C@@H](C23[C@H](C1(C)[C@H](C)CC2)C(=O)CC3)C,-4.647330882,2.8852,378.502
,C6809,ZSDSQXJSNMTJDA-UHFFFAOYSA-N,O=C1CCC[C@H]2N1C[C@@H]1CCCN3[C@@H]1[C@@H]2CCC3,-2.200862389,1.7475,248.364
,C3259,ZSEGSUBKDDEALH-UHFFFAOYSA-N,CN(CC(CN1c2ccccc2CCc2c1cccc2)C)C,-4.787215978,4.186,294.434
,C161,ZSFUDSWIVAQKEN-UHFFFAOYSA-N,CCCN(c1c(cc(cc1[N+](=O)[O-])C(F)(F)F)[N+](=O)[O-])CCC,-5.6799998,5.1946,335.279
,C9854,ZSIAUFGUXNUGDI-UHFFFAOYSA-N,O=C1SCCC1N.Cl,0.813540959,1.4795,153.63
,C192,ZSJLQEPLLKMAKR-GKHCUFPYSA-N,CCn1c2cc(Cl)ccc2[nH]c(=O)c2c1nccc2,-5.3600001,3.1133,273.718
,C1319,ZSJQFFPKUUUVMH-UHFFFAOYSA-N,CCCCCCO,-1.24,1.559,102.175
,C7532,ZSLBEMKAJDJVND-UHFFFAOYSA-N,OC[C@H]1O[C@H](O)[C@@H]([C@H]([C@@H]1O)O)NC(=O)N(N=O)C,-1.718944327,-2.5,265.221
,C4834,ZSPPPAFDNHYXNW-FMQUCBEESA-N,OCC[N+]1(CCOCC1)C1N=C(c2c(NC1=O)ccc(c2)Cl)c1ccccc1Cl.[Cl-],-3.517477345,-0.5153,470.777
,C286,ZSRFQUOAJPNPCV-UHFFFAOYSA-L,CCn1c2ncccc2c(=S)n(c2c1cccc2)C,-4.71,3.8396,269.365
,C8489,ZSRGLQQAHXRPJC-UHFFFAOYSA-N,N#CCCN(c1ccc(cc1)/N=N/c1ccc(cc1)[N+](=O)[O-])CC,-0.907620919,5.27338,323.349
,C4958,ZSVPPOWKJGVDON-UHFFFAOYSA-N,Cn1c2ccccc2c2c1c(C)[n+](CCC[N+]1(C)CCCC1)cc2.[Br-].[Br-],-3.414696653,-2.4753,483.283
,C4662,ZSWYRNBDILXVMP-YEUQMBKVSA-N,CCOC(=S)c1ccc(cc1)Cl,-3.63318719,3.052,200.685
,C4507,ZSZDLICNXAEVQW-UHFFFAOYSA-N,CC[NH+](C(CC1(c2ccccc2)C(=O)Oc2c1cccc2)C)CC.[Cl-],-3.723027506,-0.401,359.89
,C4056,ZTACEXAAXMFRGD-UHFFFAOYSA-N,COc1cc(/C=C/C(=O)CCN2CCN(CC2)c2ccccc2F)cc(c1OC)OC.Cl.O,-4.069029225,4.3867,482.973
,C2167,ZTBPMPNPJPKIHB-UHFFFAOYSA-N,CCC1=NCCC1(c1ccccc1)c1ccccc1,-6.570746744,3.663,249.35
,C1889,ZTDIPPQFTNXLID-UHFFFAOYSA-N,Cc1ccccc1CN1CCN(CC1)CCOC(c1ccccc1Cl)c1ccccc1.Cl.Cl,-7.945376259,7.052,507.923
,C7336,ZTHRQJQJODGZHV-UHFFFAOYSA-N,NNC(Cc1ccc2c(c1)OCO2)C,-1.860190438,1.9008,194.23
,C2812,ZTHVHELPCLGXHF-JPPAUQSISA-N,OC(=O)C(=O)O.CN(CC1COC2(O1)c1cc(Cl)ccc1OCc1c2cccc1)C,-5.336147958,2.5661,435.855
,C1102,ZTHYODDOHIVTJV-UHFFFAOYSA-N,CCC(=O)Nc1ccccc1,-1.92,2.1081,149.19
,C4931,ZTISJNYJBMXWHV-AQFVONAPSA-N,COc1ccc2c(c1)[C@]13CCN4[C@H]1C[C@@H]1[C@@H]5[C@@H]3N2C(=O)C[C@@H]5OCC=C1C4,-3.437127783,2.104,364.438
,C1146,ZTJORNVITHUQJA-UHFFFAOYSA-N,CCCOC(=O)c1cc(O)c(c(c1)O)O,-1.78,1.3702,212.199
,C2788,ZTMKADLOSYKWCA-UHFFFAOYSA-N,O=C1CC2C(C1(CC2)CS(=O)(=O)O)(C)C.Oc1ccc2c(c1)[C@]13CCCC[C@H]3[C@@H](C2)N(CC1)CCCOc1ccccc1,-5.380369386,7.208,609.816
,C4050,ZTNANFDSJRRZRJ-UHFFFAOYSA-N,CCCCCCCOC(=O)c1ccc(cc1)O,-4.072453942,3.5194,236.307
,C315,ZTQSAGDEMFDKMZ-UHFFFAOYSA-N,O=c1[nH]c2CCCc2c(=O)n1C1CCCCC1,-4.5900002,1.5305,234.294
,C1091,ZTSJQQMUSULPRX-UHFFFAOYSA-M,Cc1cc(C)c2c(n1)cccc2,-1.9400001,2.8516,157.212
,C1560,ZTXDHEQQZVFGPK-UHFFFAOYSA-N,CCCC=O,-0.0099999998,0.9854,72.1057
,C8504,ZTYGXAJTOOFVGB-UHFFFAOYSA-N,CCCCOC(=O)CO[NH3+].[Cl-],-0.892880502,-3.4928,183.633
,C8255,ZTYRCJNTGWMELW-UHFFFAOYSA-N,O=c1n(CC2OC2)c(=O)n(n1CC1OC1)CC1OC1,-1.126970929,-1.9921,269.254
,C1888,ZTYVMAQSHCZXLF-UHFFFAOYSA-N,CC[NH+](CCCCCCCCCCCC1(c2ccccc2)C(=O)Oc2c1cccc2)CC.[Cl-],-7.946501933,2.7214,472.102
,C4968,ZUCOHTQQOAJHNH-UHFFFAOYSA-L,CCC1(C(=O)NC(=O)N(C1=O)CN1CCCCC1)c1ccccc1,-3.403780229,2.0608,329.394
,C2960,ZUCYWASRHXWLPN-UHFFFAOYSA-N,COC(=O)c1ccccc1S(=O)(=O)NC(=O)Nc1nc(OC(F)F)cc(n1)OC(F)F,-5.152043602,3.5211,468.337
,C2790,ZUFQODAHGAHPFQ-UHFFFAOYSA-N,CC[N+]1(CCCCCC[N+]2(CC)CCCC2)CCCC1.[Br-].[Br-],-5.378568786,-2.2666,442.316
,C7148,ZUJCXSRZZWIJLY-UHFFFAOYSA-N,CCN(CCN1CC2CCC(C1)N2C(=O)CC)CC,-1.999054202,1.2892,267.41
,C9131,ZUMKGEDSJKWRFD-UHFFFAOYSA-N,OCc1c(CO)cnc(c1O)C.Cl,0.029319309,0.8822,205.639
,C2624,ZUNJWRJEKCRIMZ-UHFFFAOYSA-N,CCCCC1=CC(N(C(C1)(C)C)C(=O)CN1CCCC1)(C)C,-5.619544149,3.8641,306.486
,C3737,ZUOUZKKEUPVFJK-UHFFFAOYSA-N,CN(CCCN1c2ccccc2NCc2c1cccc2)C,-4.306313954,3.9049,281.395
,C3050,ZUTJDJAXWKOOOI-UHFFFAOYSA-N,Clc1cc2NC(CSCc3ccccc3)NS(=O)(=O)c2cc1S(=O)(=O)N,-5.044143618,5.2794,433.953
,C373,ZUTYZAFDFLLILI-UHFFFAOYSA-N,c1ccc(cc1)c1ccccc1,-4.3099999,3.3536,154.208
,C9600,ZUWXHHBROGLWNH-UHFFFAOYSA-N,NC(=O)NCCNC(=O)N,0.573981769,0.5054,146.148
,C6820,ZUXABONWMNSFBN-UHFFFAOYSA-N,CCC(c1ccc(cc1)O)C,-2.194459387,2.9057,150.218
,C3795,ZUXNZUWOTSUBMN-UHFFFAOYSA-N,Clc1ccc(c(c1)C(=O)c1ccccc1)N,-4.255308123,3.7344,231.678
,C3600,ZVAWZQUDKKABKR-WLHGVMLRSA-N,CN1CCN(CC1)C1=c2ccccc2=Nc2c(N1)cc(Cl)cc2,-4.443911935,1.4793,326.823
,C8716,ZVBSFGNDYNVQNP-UHFFFAOYSA-L,NNc1nncc2c1cccc2.Cl,-0.648245179,2.4907,196.637
,C7703,ZVJBPHMCBRHVEV-GQCTYLIASA-N,NC1=NCC(O1)c1ccccc1.OC(=O)/C=C/C(=O)O,-1.597501714,0.9203,278.261
,C3328,ZVNYYNAAEVZNDW-UHFFFAOYSA-N,C[N+]1(CCC[n+]2cccc3c2ccc2c3cccc2)CCCC1.[Br-].[Br-],-4.695963489,-2.1222,466.253
,C7214,ZVRYGOWMYYDRID-UHFFFAOYSA-N,CCC(=O)/C(=N/O)/C,-1.950606339,0.8156,115.13
,C8242,ZVXBAHLOGZCFTP-UHFFFAOYSA-N,Nc1ccnn1c1ccccc1,-1.13746325,2.0357,159.188
,C9785,ZVYXEXAXXWINEH-UHFFFAOYSA-N,CCNCCSS(=O)(=O)O,0.732227717,1.6036,185.265
,C3319,ZWAOHEXOSAUJHY-ZIYNGMLESA-N,CCOC(=O)COc1ccc2c(c1)oc(cc2=O)c1ccccc1,-4.709311741,3.4019,324.327
,C7488,ZWEHNKRNPOVVGH-UHFFFAOYSA-N,CCN(C(=O)c1ccccc1O)CC,-1.744531269,1.8742,193.242
,C8981,ZWGAOFFHPFTCFP-UHFFFAOYSA-M,C[C@H]1O[C@H]([C@@H]([C@@H]1O)O)n1cc(F)c(=O)[nH]c1=O,-0.251713198,-1.6852,246.192
,C1606,ZWGHUIKEIAHGCZ-UHFFFAOYSA-N,CCC(=O)C,0.51999998,0.9854,72.1057
,C3083,ZWIKMHMXRCCKQO-UHFFFAOYSA-N,CC(=CC=CN1CCC(CC1)c1ccccc1)/C=[N+]/1\CCC(CC1)c1ccccc1.[Cl-],-5.008113294,2.8876,435.044
,C6465,ZWLAJJOWQDAKLK-UHFFFAOYSA-N,COc1ccc2c(c1C[NH+](C)C)oc(c(c2=O)C)C.[Cl-],-2.436467555,-1.9331,297.777
,C7164,ZWLPBLYKEWSWPD-UHFFFAOYSA-N,CC(NC(=O)c1ccccc1O)C,-1.986212297,1.9213,179.216
,C5876,ZWOWADWBRZWDLC-UHFFFAOYSA-N,CCCCCCCCC(NCCSS(=O)(=O)O)C,-2.795839111,4.7228,297.478
,C1053,ZWPNVVQXUQWXEY-UHFFFAOYSA-N,OC(=O)c1ccccc1C,-2.0599999,1.6932,136.148
,C5295,ZWPVHELAQPIZHO-UHFFFAOYSA-N,CN(c1c(=O)n(C2CCCCC2)c(=O)n(c1C)C)C,-3.170977501,1.4266,265.351
,C2958,ZWRUINPWMLAQRD-UHFFFAOYSA-N,ClCCN(c1cc(ccc1C)[N+](=O)[O-])CCCl,-5.152672421,3.7104,277.147
,C105,ZWSMHUSCFABOJA-UHFFFAOYSA-N,Clc1ccc(c(c1)Cl)c1cc(Cl)ccc1Cl,-6.5700002,5.9672,291.988
,C722,ZWYUGDUPLSGYSK-UHFFFAOYSA-N,CCCCCCCCCO,-3.01,2.7293,144.254
,C7119,ZWZVMMDEDBKUEC-UHFFFAOYSA-N,CCCCSC(C(=O)N)(C)C,-2.026273172,2.4839,175.292
,C4138,ZXAGXLDEMUNQSH-UHFFFAOYSA-N,O=C1NC(=O)C2(N1)CCc1c(C2)cccc1,-4.012716758,1.4111,216.236
,C6467,ZXBLMXOUGVRCCH-BUHFOSPRSA-N,Oc1c(Br)ccccc1=O,-2.435180746,1.5149,201.017
,C88,ZXEKIIBDNHEJCQ-UHFFFAOYSA-N,CCc1ccc2c(c1)cc1c(c2)cccc1,-6.8899999,4.5554,206.282
,C2768,ZXEPICRUPDEDET-UHFFFAOYSA-N,O=N/C(=C(\c1ccccc1)/NO)/c1ccccc1,-5.413043506,3.6485,240.257
,C1566,ZXFQRFXLFWWKLX-UHFFFAOYSA-N,OCC(C)C,0.039999999,0.6347,74.1216
,C3407,ZXFXBSWRVIQKOD-CFKMXOCQSA-N,O=C(Nc1c(C)cccc1Cl)OC1CCN(CC1)C(C)C,-4.626224398,4.0806,310.819
,C4598,ZXHCITRMALCKPV-UHFFFAOYSA-N,COc1ccc2c(c1CN(C)C)oc(c(c2=O)C)c1ccccc1,-3.667432138,3.8386,323.386
,C121,ZXIJMRYMVAMXQP-UHFFFAOYSA-N,Cl[C@@H]1[C@@H]2O[C@@H]2[C@@H]2[C@H]1[C@]1(Cl)C(=C([C@]2(C1(Cl)Cl)Cl)Cl)Cl,-6.29,4.4527,389.317
,C6427,ZXKHOVDDJMJXQP-UHFFFAOYSA-N,N#CSc1ccc(cc1)C(=O)O,-2.457440999,1.95798,179.196
,C668,ZXKXJHAOUFHNAS-UHFFFAOYSA-N,C1CCC=CCC1,-3.1800001,2.5067,96.1702
,C7559,ZXNBBWHRUSXUFZ-NTSWFWBYSA-N,C=CC1(O)CCCCC1,-1.701382192,1.8676,126.196
,C7376,ZXQKYQVJDRTTLZ-UHFFFAOYSA-N,CCNC(Cc1cccc(c1)C(F)(F)F)C.Cl,-1.831083721,4.4388,267.718
,C1447,ZXQLCTFFNCGCAD-UHFFFAOYSA-N,CC[C@@H]([C@H](O)C)C,-0.72000003,1.4133,102.175
,C8171,ZXQVXEAZKZFEEP-UHFFFAOYSA-N,CCN(C(=O)C1CCCNC1)CC,-1.21240683,1.1832,184.279
,C7519,ZXQYGBMAQZUVMI-XYRWEVSHSA-N,OC(Cn1cnc2c1c(=O)n(C)c(=O)n2C)CN1CCN(CC1)C(=O)c1ccccc1,-1.725721236,-0.8716,426.469
,C6183,ZXSGQNYQJIUMQN-UHFFFAOYSA-N,NC(=O)C(c1ccccc1)c1ccccc1,-2.603839775,3.0041,211.259
,C31,ZXUMUPVQYAFTLF-JTQLQIEISA-N,N#C[C@@H](c1cccc(c1)Oc1ccccc1)OC(=O)[C@@H]1[C@H](C1(C)C)/C=C(/C(F)(F)F)\Cl,-8.1800003,6.54398,449.85
,C6747,ZXUMUPVQYAFTLF-UHFFFAOYSA-N,CC1CCCCN1CCCOC(=O)c1ccccc1.Cl,-2.248648952,3.8478,297.82
,C864,ZXVONLUNISGICL-UHFFFAOYSA-N,CC[C@@H](Cc1c[nH]c2c1cccc2)N,-2.5699999,3.148,188.269
,C6242,ZXWAPCCQSDUJRB-LIUCOPNQSA-N,CCC(Cc1c[nH]c2c1cccc2)N,-2.567220173,3.148,188.269
,C1253,ZXWAPCCQSDUJRB-XIDBHWPPSA-N,[O-][N+](=O)c1cc(C)c(c(c1)[N+](=O)[O-])O,-1.46,2.5634,198.133
,C1938,ZXXJLAKNTDVKRB-UHFFFAOYSA-N,OS(=O)(=O)O.Clc1ccc2c(c1)/C(=C\CCN1CCCCC1)/c1c(S2)cccc1,-7.556681481,6.4782,454.003
,C1937,ZYDUNXCLPOKBNQ-UHFFFAOYSA-N,OS(=O)(=O)O.Clc1ccc2c(c1)/C(=C/CCN1CCCCC1)/c1c(S2)cccc1,-7.556681481,6.4782,454.003
,C3451,ZYFPOJDYNPQXHJ-ZPMIJRNTSA-N,Nc1ccc2c(c1)cc1c(n2)ccc(c1)Cl,-4.580351812,4.2048,228.677
,C8234,ZYGHJZDHTFUPRJ-UHFFFAOYSA-N,CC1(C)CC=CC(N1)(C)C,-1.144204764,2.4219,139.238
,C2299,ZYHGIAPHLSTGMX-UHFFFAOYSA-N,[O-][N+](=O)c1ccc(cc1)CCN1CC[C@@]23[C@H]([C@H]1Cc1c3cccc1)CCCC2.Cl,-6.217965886,6.159,412.952
,C1115,ZYMUNTZVOUBQAI-JSAVKQRWSA-N,O=c1ccc2c(o1)cccc2,-1.89,1.793,146.143
,C7256,ZYPGADGCNXOUJP-CXVPHVKISA-N,CC1CC(OC(=O)c2ccccc2)CC(N1)(C)C,-1.921999134,3.0913,247.333
,C2209,ZYPIAZBAHRUTGU-UHFFFAOYSA-N,COc1ccc(cc1)/C=C/1\CCC/C(=C\c2ccc(cc2)OC)/C1=O,-6.467380911,4.9238,334.408
,C4733,ZYTHLJLPPSSDIP-UHFFFAOYSA-N,CCCC[C@H](/C=C(/C=C/C=C/C(=O)N1CCCC1=O)\C)O,-3.584234343,2.6831,291.385
,C7877,ZYZQOYSKLICWGX-UHFFFAOYSA-N,O=C(N1CC1)Nc1ccccc1,-1.470457085,1.545,162.189
,C3094,ZZGMTCKULVMTDB-UHFFFAOYSA-N,CCOC(=O)C1(CCN(CC1)CCc1ccc(cc1)N)c1ccccc1.Cl.Cl,-4.999381771,5.5313,425.392
,C6360,ZZHLYYDVIOPZBE-UHFFFAOYSA-N,COc1ccc(cc1)C(=O)c1ccccn1,-2.498271838,2.3212,213.232
,C8160,ZZHZBOWDNSQHCZ-UHFFFAOYSA-N,OC(C(N(C(=O)C)C)C)c1ccccc1,-1.219632699,1.5868,207.269
,C2703,ZZLCFHIKESPLTH-UHFFFAOYSA-N,CN(CC(CN1c2ccccc2Sc2c1cccc2)C)C,-5.501048349,4.552,298.446
,C7012,ZZMAMUSXLOFMFS-UHFFFAOYSA-N,CC(C(COC(=O)NC(=O)C)(COC(=O)NC(=O)C)C)C,-2.082536926,1.9759,302.324
,C307,ZZMSHBOVYPIYOB-UHFFFAOYSA-N,Cc1ccc(cc1)c1ccccc1,-4.6199999,3.662,168.234
,C4456,ZZORFUFYDOWNEF-UHFFFAOYSA-N,N1CCN(CC1)c1nc(c(o1)c1ccccc1)c1ccccc1,-3.758930395,3.812,305.374
,C4716,ZZOUFPPAGDDGJX-UHFFFAOYSA-N,O=C1NN(C(=O)C1c1ccccc1)c1ccccc1,-3.595419431,2.242,252.268
,C734,ZZPKZRHERLGEKA-UHFFFAOYSA-N,COc1nc(OC)nc(c1)NS(=O)(=O)c1ccc(cc1)N,-2.96,2.6118,310.329
,C3947,ZZRIQDWDJVLELF-UHFFFAOYSA-N,c1ccc2c(c1)C[NH2+]c1c(N2)cccc1.[Cl-],-4.141507631,0.8499,232.709
,C8614,ZZUFCTLCJUWOSV-UHFFFAOYSA-N,CC(=O)Oc1cccc(c1)O,-0.782076614,1.3175,152.147
,C5197,ZZUKBDJWZXVOQG-UHFFFAOYSA-N,O=C1CNC(=S)N1c1ccccc1,-3.242442013,1.3015,192.238
,C533,ZZYHCCDMBJTROG-UHFFFAOYSA-N,OC(=O)c1cc(c(cc1NCc1ccco1)Cl)S(=O)(=O)N,-3.6600001,3.7448,330.744
,C4555,ZZYJIQMXACETTK-UHFFFAOYSA-N,CCOC(=O)C(Br)(Br)Br,-3.693514142,2.388,324.793
,C4804,AAGPPJSKCWSVCQ-GHEHHKQRSA-L,OC(=O)C(CC(=O)O)(CC(=O)O)O.CN(CCOc1ccccc1Cc1ccccc1)C,-3.536834169,1.9693,447.478
,C7277,AAKAAFFHKNBIKB-UHFFFAOYSA-N,CCOC1(OCCN(C1C)C)c1ccccc1.Cl,-1.910349008,2.9663,271.783
prometryne,B-4615,AAKMSGQPNUGLAZ-UHFFFAOYSA-N,CSc1nc(NC(C)C)nc(NC(C)C)n1,-3.8642,,
disodium 6-acetamido-4-hydroxy-3-[(4-{[2-(sulfonatooxy)ethyl]sulfonyl}phenyl)diazenyl]naphthalene-2-sulfonate,A-2983,AAOISIQFPPAFQO-UHFFFAOYSA-N,[Na+].[Na+].CC(=O)Nc1ccc2C=C(\C(=N/Nc3ccc(cc3)[S](=O)(=O)CCO[S]([O-])(=O)=O)C(=O)c2c1)[S]([O-])(=O)=O,-0.6794075026,,
2-diethylaminopropyl 4-aminobenzoate,F-575,AAOLSIAQZZQQCI-IKFJUQJOSA-N,CCN(CC)C(C)COC(=O)C1=CC=C(N)C=C1,-2.38,,
Vat brown 3,A-2000,AAPVQEMYVNZIOO-UHFFFAOYSA-N,O=C(Nc1cccc2C(=O)c3c4[nH]c5c(cc(NC(=O)c6ccccc6)c7C(=O)c8ccccc8C(=O)c57)c4ccc3C(=O)c12)c9ccccc9,-5.647161854,,
"pteridine, 7-chloro-",B-1618,AAQBHIGARPQBLO-UHFFFAOYSA-N,Clc1cnc2cncnc2n1,-0.8749,,
"6,6-dimethylheptanoic acid",A-5010,AAQWYJPJRWOQEV-UHFFFAOYSA-N,CC(C)(C)CCCCC(O)=O,-2.475043149,,
2-(2-{[(2R)-2-ethylhexyl]oxy}ethoxy)ethyl prop-2-enoate 2-(2-{[(2S)-2-ethylhexyl]oxy}ethoxy)ethyl prop-2-enoate,A-4961,AARNXMRADQFOEB-UHFFFAOYSA-N,CCCC[C@H](CC)COCCOCCOC(=O)C=C.CCCC[C@@H](CC)COCCOCCOC(=O)C=C,-3.994274106,,
"7-chloro-1-methyl-5-phenyl-3H-1,4-benzodiazepin-2-one",F-1105,AASRJJKRVOUFBO-UHFFFAOYSA-N,CN1C(=O)CN=C(C2=CC=CC=C2)C2=C1C=CC(Cl)=C2,-3.71,,
endosulfan sulfate,B-4378,AATGHKSFEUVOPF-UHFFFAOYSA-N,ClC1=C(Cl)C2(Cl)C3CO[S](=O)(=O)OCC3C1(Cl)C2(Cl)Cl,-5.945,,
3-hydroxy-2-(3-hydroxyquinolin-2-yl)-1H-inden-1-one,A-5516,AAWZDTNXLSGCEK-UHFFFAOYSA-N,OC1=Cc2ccccc2NC1=C3C(=O)c4ccccc4C3=O,-7.046360074,,
"succinic acid, 2-ethyl-3-phenyl-",B-2493,AAXVEMMRQDVLJB-BULBTXNYSA-N,CCC(C(C(O)=O)c1ccccc1)C(O)=O,-2.3256,,
11-a-Hydroxyprogesterone,H-268,AAXVEMMRQDVLJB-UHFFFAOYSA-N,CC(=O)C1CCC2C3CCC4=CC(=O)CC(O)C4(C)C3CCC12C,-3.82,,
"methanetrisulfonic acid, chloro-",B-3226,ABDKAPXRBAPSQN-UHFFFAOYSA-N,O[S](=O)(=O)C(Cl)([S](O)(=O)=O)[S](O)(=O)=O,0.5366,,
"diethylamine, hydrobromide",B-2219,ABEXEQSGABRUHS-UHFFFAOYSA-N,[Br-].CC[NH2+]CC,0.8123,,
quinic acid,D-1387,ABJFBJGGLJVMAQ-UHFFFAOYSA-N,OC1CC(O)(CC(O)C1O)C(O)=O,0.179,,
fludrocortisone,B-4578,ABLLZVRKYUXMHV-UHFFFAOYSA-N,C[C@]12C[C@H](O)[C@@]3(F)[C@@H](CCC4=CC(=O)CC[C@]34C)[C@@H]1CC[C@]2(O)C(=O)CO,-3.4342,,
fludrocortisone,E-1122,ABOOPXYCKNFDNJ-UHFFFAOYSA-N,CC12CC(O)C3(F)C(CCC4=CC(=O)CCC43C)C2CCC1(O)C(=O)CO,-3.43,,
sodium 2-hydroxybenzoate,A-1770,ABRDPORILGADAP-UHFFFAOYSA-N,[Na+].Oc1ccccc1C([O-])=O,-0.1074921694,,
"1,2-dimethoxybenzene",A-451,ABRIMXGLNHCLIP-VURMDHGXSA-N,COc1ccccc1OC,-1.314975067,,
2-methylheptadecyl 3-methylheptadecanoate,A-5687,ABTUPTPDCSVHOI-UHFFFAOYSA-N,CC(C)CCCCCCCCCCCCCCCOC(=O)CCCCCCCCCCCCCCC(C)C,-7.086497346,,
"2,4,6(1h,3h,5h)-pyrimidinetrione, 5-nitro-",B-983,ABVWCZFYRJJFFG-UHFFFAOYSA-N,[O-][N+](=O)C1C(=O)NC(=O)NC1=O,-2.284,,