Name,Compound ID,InChIKey,SMILES,logS,logP,MW
,C6162,ULFCBIUXQQYDEI-UHFFFAOYSA-N,C#CC(OC(=O)Nc1cccc(c1)Cl)C,-2.617186813,2.9832,223.656
,C1051,ULGZDMOVFRHVEP-RWJQBGPGSA-N,CC(=C)[C@H]1CC=C(C(=O)C1)C,-2.0599999,2.4879,150.218
,C8748,ULIQGBPQLPCTAJ-UHFFFAOYSA-N,OCC(C(=O)NNCc1ccc(c(c1O)O)O)N.Cl,-0.582548656,0.5279,293.704
,C2573,ULKNJYDXLYMGFB-UHFFFAOYSA-N,CC[C@H]1OC(=O)[C@H](C)[C@@H](O[C@@H]2O[C@@H](C)[C@@H]([C@](C2)(C)OC)O)[C@H](C)[C@@H](O[C@@H]2O[C@H](C)C[C@@H]([C@H]2O)N(C)C)[C@](C[C@H](C(=O)[C@@H]([C@H]([C@]1(C)O)O)C)C)(C)O,-5.70820202,1.7856,733.927
,C4120,ULLNJSBQMBKOJH-VIVFLBMVSA-N,c1ccc(cc1)CSc1ncnc2c1[nH]cn2,-4.026418567,2.6452,242.3
,C6684,ULOYWYMYAXXGKJ-UHFFFAOYSA-L,OC(=O)CCC1NC(=S)N(C1=O)c1ccccc1,-2.285374969,1.5349,264.3
,C2231,ULRSRGDZNASHQP-UHFFFAOYSA-N,CCOC1O[C@@H]([C@@H]([C@H]1O)OCc1ccccc1)[C@H](OCc1ccccc1)COCc1ccccc1,-6.399380703,4.4963,478.577
,C9172,ULSAJQMHTGKPIY-UHFFFAOYSA-N,C(=C/C=[N+]/1\CC=CC1)C=CN1CC=CC1.C(=C/C=[N+]/1\CC=CC1)C=CN1CC=CC1.OC(=O)c1cc2ccccc2c(c1[O-])Cc1c([O-])c(cc2c1cccc2)C(=O)O.O,0.093147981,8.1593,806.944
,C5713,ULSIYEODSMZIPX-MRVPVSSYSA-N,Cc1ccc2c(c1)c(nc(=O)[nH]2)c1ccccc1,-2.905364142,2.8985,236.269
,C7996,ULSIYEODSMZIPX-UHFFFAOYSA-N,ClCC(=O)C(C)(C)C,-1.363386185,1.8404,134.604
,C1486,ULSLJYXHZDTLQK-AWEZNQCLSA-N,NC[C@H](c1ccccc1)O,-0.47999999,1.379,137.179
,C8818,ULSUXBXHSYSGDT-UHFFFAOYSA-N,NCC(c1ccccc1)O,-0.476431684,1.379,137.179
,C765,ULTHZYBVLBNQSI-UHFFFAOYSA-N,O=c1oc2ccccc2c(c1[C@H]1CCCc2c1cccc2)O,-2.8399999,3.9668,292.329
,C3399,ULULAZKOCFNOIM-UHFFFAOYSA-N,COc1ccc(cc1)c1cc(=O)c2c(o1)c(OC)c(c(c2OC)OC)OC,-4.631458919,3.503,372.369
,C8771,ULWAQUOJDWTYTM-UHFFFAOYSA-L,COc1ccc(c(c1)C(C[NH3+])(O)C)OC.[Cl-],-0.557635185,-2.8428,247.719
,C4218,ULYJKALLWCFWKP-UHFFFAOYSA-N,CCCCCCOC(=O)c1ccc(cc1)O,-3.948968195,3.1293,222.28
,C9453,ULYZAYCEDJDHCC-UHFFFAOYSA-N,CC[N+](CCCOCC[N+](CC)(CC)CC)(C)C.[Br-].[Br-],0.376467487,-3.6261,420.267
,C7821,UMBQWJHNUSDWMU-UHFFFAOYSA-N,OCCOc1ccc(cc1N)[As]=O,-1.514201286,-0.1039,243.092
,C1266,UMCASJWXQFBOPZ-JSGFVSQVSA-N,CC(Cl)C,-1.41,1.6336,78.5407
,C7742,UMCNJMVTYNYAGF-UHFFFAOYSA-N,OCC(C(C)(C)C)(CO)C,-1.57064393,1.0234,146.227
,C7116,UMFDOKHYNFURFT-LEEZJRHMSA-N,O=C1NC(=O)N(C1)/N=C/c1ccc(o1)[N+](=O)[O-].CC(=O)O,-2.027365628,0.9543,298.209
,C5029,UMGDCJDMYOKAJW-UHFFFAOYSA-N,CCN1CCCC(C1)OC(=O)Nc1ccccc1C,-3.365807591,3.0387,262.347
,C2487,UMILHIMHKXVDGH-UHFFFAOYSA-N,COc1ccc2c(c1)Sc1c(/C/2=C\CCN2CCN(CC2)C)cccc1.Cl.Cl,-5.849806998,5.7088,439.442
,C1588,UMIPWJGWASORKV-UHFFFAOYSA-N,NC(=S)N,0.31999999,0.5893,76.1209
,C9604,UMKFEPPTGMDVMI-UHFFFAOYSA-N,O(CCOCC1OC1)CCOCCOCC1OC1,0.581198398,-0.1496,262.299
,C532,UMKXSOXZAXIOPJ-UHFFFAOYSA-N,CCCCCCC#C,-3.6600001,2.59,110.197
,C5979,UMMYPDFDLDVDCZ-UHFFFAOYSA-N,ClCCN(P1(=O)OCCCN1CCCl)CCCl,-2.732988757,2.7731,323.584
,C1073,UMNHNUOGFFWNIA-UHFFFAOYSA-N,Oc1ccc2c(c1)CCCC2,-1.99,2.271,148.202
,C6372,UMPSEGNTCDIXFF-UHFFFAOYSA-N,CSc1c(Cl)nc(nc1N1CCN(CC1)C)NC(C)C,-2.495178771,2.4999,315.865
,C7285,UMPSXRYVXUPCOS-UHFFFAOYSA-N,NC(=N)SCCCCSC(=N)N.Br.Br,-1.902323868,4.5362,368.156
,C3725,UMSBICJLRLBRSQ-UHFFFAOYSA-N,Ic1ccc(nc1)OCCCCCCCNCCSS(=O)(=O)O,-4.318184209,4.6128,474.378
,C1302,UMSGKTJDUHERQW-UHFFFAOYSA-N,Clc1c(O)cccc1Cl,-1.3,2.699,163.001
,C9520,UMVOQQDNEYOJOK-UHFFFAOYSA-N,OS(=O)(=O)SCCNCC1CC1,0.443750916,1.9937,211.302
,C2657,UMWAUEZOGHNSCH-UHFFFAOYSA-N,Brc1cc2c(s1)n1c(CN=C2c2ccccc2Cl)nnc1C,-5.562532324,3.8397,393.689
,C5439,UMYZWICEDUEWIM-UHFFFAOYSA-N,OC(=O)c1cc(C)cc(c1)C,-3.07485635,2.0016,150.175
,C7648,UNAHYJYOSSSJHH-UHFFFAOYSA-N,CC(C(N)(C)C)c1ccccc1,-1.62742973,3.2277,163.259
,C7741,UNBRKDKAWYKMIV-QWQRMKEZSA-N,COc1cc(ccc1OC)CC(=O)C,-1.572312967,1.8353,194.227
,C222,UNEPJNUFVDMRKA-UHFFFAOYSA-N,CCCN(c1c(cc(cc1[N+](=O)[O-])S(=O)(=O)N)[N+](=O)[O-])CCC,-5.1599998,4.6043,346.36
,C6037,UNFWWIHTNXNPBV-WXKVUWSESA-N,CC[C@H](NC(=O)[C@H]1CN(C)[C@H]2C(=C1)c1cccc3c1c(C2)c[nH]3)CO,-2.691283692,2.2535,339.431
,C8327,UNLYSVIDNRIVFJ-CYBMUJFWSA-N,CCCC(CCC)[NH3+].[Cl-],-1.063651269,-1.7989,151.678
,C9166,UNNGUFMVYQJGTD-UHFFFAOYSA-N,CN[C@H]1[C@H](O)[C@H]2O[C@@H]3O[C@H](C)CC(=O)[C@@]3(O[C@@H]2[C@H]([C@H]1O)NC)O,0.087994806,-2.1438,332.35
,C420,UNRHXEPDKXPRTM-UHFFFAOYSA-N,CCCOP(=S)(SCC(=O)N1CCCC[C@H]1C)OCCC,-4.1500001,4.7868,353.481
,C1235,UNVDLZFIUJGXJR-UHFFFAOYSA-N,CCC(C=O)CC,-1.52,1.6215,100.159
,C6042,UNVLUPRQPLQYGW-UHFFFAOYSA-N,CCN1CCCC1CNC(=O)c1cc(ccc1OC)S(=O)(=O)CC,-2.689774812,3.1125,354.464
,C3913,UNXHWFMMPAWVPI-ZXZARUISSA-N,CCN1CCC(CC1)OC(=O)Nc1c(C)cccc1Cl,-4.167105225,3.6921,296.792
,C6583,UNZMYCAEMNVPHX-UHFFFAOYSA-M,CCCCC(Cc1ccccc1)N,-2.356146885,3.4469,177.286
,C1623,UOAMTSKGCBMZTC-UHFFFAOYSA-N,OC[C@H]([C@H](CO)O)O,0.69999999,-2.3072,122.12
,C9719,UOASDROHTULFOT-UHFFFAOYSA-N,O=C(c1ccc(cc1)N)NCC(=O)[O-].[Na+],0.665200559,-0.2794,216.169
,C164,UOCAPIHAVVORKH-UHFFFAOYSA-N,OC(C(Cl)(Cl)Cl)(c1ccc(cc1)Cl)c1ccc(cc1)Cl,-5.6700001,5.5995,370.486
,C3881,UOCJDOLVGGIYIQ-PBFPGSCMSA-N,C[NH+](CCCC1(c2ccccc2)c2ccccc2N(C1=O)C)C.[Cl-],-4.18548927,-1.0572,344.878
,C4189,UOCLRXFKRLRMKV-UHFFFAOYSA-N,OC(CN1CCN(CC1)c1cccc(c1)C(F)(F)F)COc1cccc(c1)C(=O)C.Cl.Cl,-3.974765147,5.0768,495.363
,C6715,UOCLXMDMGBRAIB-UHFFFAOYSA-N,O=C([C@@H](c1ccc(cc1)O)N)N[C@@H]1C(=O)N2[C@@H]1SCC(=C2C(=O)O)CSc1n[nH]nc1,-2.266303058,1.0701,462.503
,C7720,UOCRGKKCNCIQCZ-QILLFSRXSA-N,OP(=O)(O)O.OP(=O)(O)O.[O-][N+](=O)OCCN(CCO[N+](=O)[O-])CCO[N+](=O)[O-],-1.584831689,-1.3743,480.171
,C1064,UOCUDGZQFFDOMM-UHFFFAOYSA-N,CC(Cl)(Cl)Cl,-2,2.3765,133.404
,C4504,UOFIKNKQTSXENW-UHFFFAOYSA-N,COc1ccc2c(c1)[C@]13CCCC[C@H]3[C@@H](C2=O)N(CC1)C,-3.727080389,2.9615,285.381
,C8554,UOLJTYANOXJYCT-UHFFFAOYSA-N,CCOC(=O)N1CCN(CC1)CN1CCN(CC1)C(=O)OCC,-0.844322469,0.2437,328.407
,C7643,UONFEYAYBJCNHL-CAOOACKPSA-N,CCN(CCOC(=O)C1CC2CCN1CC2)CC,-1.628771518,1.2936,254.368
,C3150,UONKAYXKEKSURY-UHFFFAOYSA-N,CCCCCOc1ccccc1NC(=O)OCC[NH+]1CCCCC1.[Cl-],-4.920235275,1.5191,370.914
,C1874,UONWZNLVCSWMSI-UHFFFAOYSA-N,Clc1ccc2c(c1)/C(=C/CCN1CCCCC1)/c1c(S2)cccc1,-8.133055994,6.0502,355.924
,C4827,UORJNBVJVRLXMQ-UHFFFAOYSA-N,C1CCc2c(N(C1)CCN1CCCC1)cccc2,-3.52296524,2.928,244.375
,C5027,UORKEUUXJMNISC-UHFFFAOYSA-N,CCN1CCCC(C1)OC(=O)Nc1ccc(cc1)C,-3.365807591,3.0387,262.347
,C1167,UOTMYNBWXDUBNX-UHFFFAOYSA-N,C=CCC1(C(C)C)C(=O)NC(=O)NC1=O,-1.71,1.2285,210.23
,C4730,UOWPRWCAMGTPHI-UHFFFAOYSA-N,c1ccc(cc1)CN1CCCC1c1c[nH]c2c1cccc2,-3.586598304,4.4429,276.375
,C5660,UOXWPQGDEPCZDZ-BNXVUDNTSA-N,COc1ccc(cc1OC)Cc1nccc2c1cc(OC)c(c2)OC.Cl,-2.939529652,4.662,375.846
,C6394,UOYIYWCAYFTQLH-UHFFFAOYSA-N,[O-][N+](=O)c1cc2c(Cl)[nH]nc2cc1,-2.481490989,2.6477,197.579
,C2614,UOZODPSAJZTQNH-LSWIJEOBSA-N,O[C@H]([C@H](C(=O)O)O)C(=O)O.COc1ccc2c(c1)[C@]13CCCC[C@H]3[C@@H](C2)N(CC1)CCc1ccco1,-5.63587875,2.4046,501.569
,C9711,UPAMVMOKVCRLFY-UHFFFAOYSA-N,[O-][N+](=O)N1CN2CN(C1)CN(C2)[N+](=O)[O-],0.661198997,-0.8095,218.171
,C9247,UPBRPBXVUIRXRY-UHFFFAOYSA-N,OC[C@H]1O[C@H]([C@@H]([C@@H]1O[C@H]1O[C@@H](CN)[C@H]([C@@H]([C@H]1N)O)O)O)O[C@@H]1[C@@H](O)[C@H](N)C[C@@H]([C@H]1O[C@H]1O[C@H](CO)[C@H]([C@@H]([C@H]1N)O)O)N,0.210677424,-5.3602,615.629
,C6086,UPCGRNOLIKUHRT-UHFFFAOYSA-N,C[NH+](C(CN1C(=O)C(C)Oc2c1cc(Cl)cc2)C)C.[Cl-],-2.665249179,-1.9441,319.227
,C3164,UPCIBFUJJLCOQG-UHFFFAOYSA-L,CN(CCCN(c1c(C)cccc1C)C(=O)Cc1ccccc1)C,-4.911288786,3.8308,324.46
,C4318,UPCYEFFISUGBRW-UHFFFAOYSA-N,CN(CCC[N+]1([O-])c2ccccc2S(=O)c2c1cc(cc2)C(C)(C)C)C.O.O,-3.861516351,5.3896,408.555
,C9494,UPEUQDJSUFHFQP-UHFFFAOYSA-N,CC[N+](CCN(CC[N+](CC)(C)C)C)(C)C.[Br-].[Br-],0.407561201,-4.8812,391.229
,C9050,UPHNITDUIYSNSY-UHFFFAOYSA-N,CCN1C(=S)SCC1=O,-0.121104878,0.8045,161.245
,C8042,UPHWVVKYDQHTCF-UHFFFAOYSA-N,CC(=O)C#Cc1ccccc1,-1.320034845,1.6271,144.17
,C3195,UPMFZISCCZSDND-JJKGCWMISA-M,COc1cc2c(cc1OC)CC[NH+](C2CC(c1ccc(cc1)Cl)OC(=O)C)C.[Cl-],-4.872956828,1.7368,440.36
,C2094,UPMXNNIRAGDFEH-UHFFFAOYSA-N,CC(=O)O.CCCCCCCCCCCCCCCCCCN,-6.829526532,6.9978,329.561
,C9513,UPOYFZYFGWBUKL-UHFFFAOYSA-N,OC[C@H]([C@H]([C@@H]([C@H](C(=O)[O-])O)O)O)O.[Na+],0.432122695,-4.8278,218.137
,C620,UPPUKRIDAPMTRP-UHFFFAOYSA-N,N#Cc1cc(Br)c(c(c1)Br)O,-3.3299999,2.78888,276.913
,C5887,UPQHUJSVEOJFCA-UHFFFAOYSA-L,Nc1nc(c(s1)c1ccccc1)N,-2.787869183,3.1369,191.253
,C5414,UPQWMVAELITTGQ-UHFFFAOYSA-N,Clc1cc(C)c2c(c1)SCC2=O,-3.093999193,2.9368,198.669
,C9462,UPSFRSUKUUOJFH-UHFFFAOYSA-N,C[N+](CCCCC[n+]1ccc2c(c1)cccc2)(C)C.[Br-].[Br-],0.378598307,-2.9882,418.21
,C230,UPSPUYADGBWSHF-UHFFFAOYSA-N,CCCC(=O)OCN1C(=O)NC(C1=O)(c1ccccc1)c1ccccc1,-5.0700002,3.0495,352.384
,C4360,UPUDVKWQBVIKBG-UHFFFAOYSA-N,CNC(CC12CC3CC(C1)CC(C2Cl)C3)C.Cl,-3.838070961,4.611,278.261
,C5456,UPUDZFFFZRSNAE-UHFFFAOYSA-N,OC(=O)Cc1ccc(n1C)C(=O)c1ccc(cc1)C,-3.064655526,2.1916,257.285
,C3063,UPUIQOIQVMNQAP-UHFFFAOYSA-M,CCOc1ccc(cc1OCC)Cc1nccc2c1cc(OCC)c(c2)OCC.Cl,-5.025846107,6.2224,431.952
,C2948,UPUKIMVAPLOYTP-UHFFFAOYSA-N,Nc1ccc(cc1)c1c2ccccc2nc2c1ccc(c2)N,-5.165343281,5.3818,285.343
,C4417,UPXNTQIUGPERQJ-UHFFFAOYSA-N,CCCCCCCCCCCCCCOS(=O)(=O)[O-].[Na+],-3.791010449,5.2451,316.432
,C7740,UQCNKQCJZOAFTQ-ISWURRPUSA-N,FCCN(P(=O)(Cl)Cl)CCF,-1.572324239,2.8131,225.989
,C6472,UQDUPQYQJKYHQI-UHFFFAOYSA-N,CN(CCCNc1nc2c(o1)ccc(c2)Cl)C,-2.433095971,2.9178,253.728
,C8297,UQLLWWBDSUHNEB-CZUORRHYSA-N,O=C1CC[C@@]2([C@@]34[C@H]1Oc1c4c(C[C@H]2N(CC3)C)ccc1O)O,-1.098667521,0.6831,301.337
,C291,UQNCVOXEVRELFR-UHFFFAOYSA-N,CCCCCCCCCCCC(=O)OC,-4.6900001,4.0803,214.344
,C6166,UQSPFESRVJWENP-UHFFFAOYSA-N,O=C(N[C@@H]1C(=O)N2[C@@H]1SCC(=C2C(=O)O)COC(=O)C)CSc1ccncc1,-2.614817238,0.8042,423.463
,C6074,UQTCYVCSUDXQQN-UHFFFAOYSA-N,CN(C(C(=O)Nc1c(C)n(n(c1=O)c1ccccc1)C)C)C,-2.672609455,1.446,302.371
,C8868,UQTDVBKOSSSDQO-MWMYENNMSA-N,COc1ccc(cc1)C1N(C)CCN1C,-0.421269318,1.4468,206.284
,C7065,UQVHXCHHCSBTMX-UHFFFAOYSA-N,C=CCN1C(=O)Cc2c(S1(=O)=O)cccc2,-2.053029008,1.9647,237.275
,C8817,UQYAKSUWIJOUJG-UHFFFAOYSA-N,CCCC(OCn1ccn(/c/1=C/[NH+]=O)C)CC.[Cl-],-0.477242547,-2.7505,275.775
,C5320,UQZKHTHEHKIDHJ-POCMBTLOSA-N,COc1ccc(cc1OC)CCNCc1ccc2c(n1)cccc2.Cl.Cl,-3.151348989,5.5792,395.323
,C2360,UQZKYYIKWZOKKD-UHFFFAOYSA-N,CNC1CCC2(C=C1)c1ccccc1C=Cc1c2cccc1.Cl,-6.093722182,5.5874,323.859
,C4544,UQZPGHOJMQTOHB-UHFFFAOYSA-N,C[NH+]([C@@H]1CC[C@@](c2c1cccc2)(C(=O)N)c1ccccc1)C.[Cl-],-3.696817356,-0.8583,330.852
,C4935,UQZVCDCIMBLVNR-TWYODKAFSA-N,CN(CCOC(c1ccccc1C)c1ccccc1)C.Cl,-3.432424376,4.4646,305.842
,C5522,URAYPUMNDPQOKB-UHFFFAOYSA-N,ClCCN(CCCl)CC,-3.026525604,1.7859,170.08
,C4231,URBVIISFALGUAB-LZWUXPCZSA-N,O=C(NS(=O)(=O)C)CCC/C=C\C[C@H]1C(=O)C[C@H]([C@@H]1/C=C/[C@H](COc1ccccc1)O)O,-3.939379349,3.2127,465.56
,C1470,UREBDLICKHMUKA-CXSFZGCWSA-N,CC(=O)OC(COC(=O)C)COC(=O)C,-0.60000002,0.0443,218.204
,C3041,UREBDLICKHMUKA-DVTGEIKXSA-N,OCCN1CCN(CC1)CC/C=C/1\c2cc(Cl)ccc2OCc2c1cccc2.Cl.Cl,-5.055753083,5.1439,471.848
,C4644,UREBDLICKHMUKA-UAADTNEKSA-N,OCC(=O)[C@@]1(O)[C@H](C)C[C@@H]2[C@]1(C)C[C@H](O)[C@]1([C@H]2CCC2=CC(=O)C=C[C@]12C)F,-3.64441315,1.8957,392.461
,C4437,UREZNYTWGJKWBI-UHFFFAOYSA-M,OCC(=O)[C@@]1(O)[C@@H](C)C[C@@H]2[C@]1(C)C[C@H](O)[C@]1([C@H]2CCC2=CC(=O)C=C[C@]12C)F,-3.770981511,1.8957,392.461
,C539,URGQKRKYPFAIGP-MIIBGCIDSA-N,OCC(=O)[C@@]1(O)[C@H](C)C[C@@H]2[C@]1(C)C[C@@H](O)[C@]1([C@H]2CCC2=CC(=O)C=C[C@]12C)F,-3.6400001,1.8957,392.461
,C2472,URIZBPYQIRFMBF-UHFFFAOYSA-N,CC(CC(c1ccc(cc1)OCCOCC[N+](Cc1ccccc1)(C)C)(C)C)(C)C.[Cl-],-5.879555444,3.0764,448.081
,C5081,URJQOOISAKEBKW-UHFFFAOYSA-N,COc1cc(/C=C/C(=O)CCN2CCN(CC2)c2ccccn2)cc(c1OC)OC.Cl.Cl,-3.32538479,4.5089,484.416
,C5035,URLKBWYHVLBVBO-UHFFFAOYSA-N,OC(=O)CCC(=O)OC(c1oc2c(c1C)cc(cc2)C1=CC(=O)OC1)C,-3.360621544,3.1504,358.342
,C9657,URMJNZMQXGBIFX-UHFFFAOYSA-N,CCOc1c(cnn(c1=O)C)N1CCOCC1,0.621102693,0.0806,239.271
,C786,URNBQFPUGNNQRC-UHFFFAOYSA-N,Cc1ccc(cc1)C,-2.77,2.3034,106.165
,C9204,URNRFTXMBJMVAC-UHFFFAOYSA-N,CN1CCc2c(C1)cc(c(c2)O)O.Cl,0.146203109,1.8256,215.677
,C3500,URSRSKSNFPUKGH-UHFFFAOYSA-N,CC(=O)c1cccc(c1)Nc1ccccc1C(=O)O,-4.538184159,3.404,255.269
,C7481,URWAJWIAIPFPJE-YFMIWBNJSA-N,CC1NC2CCC(C1(C)C)C2,-1.752485033,2.5018,153.265
,C2631,URXQDXAVUYKSCK-UHFFFAOYSA-N,CN(CCOC(c1ccc(cc1)Br)(c1ccccc1)C)C,-5.602663937,4.2908,348.277
,C9410,URYZARAFMQWNPZ-XCVCLJGOSA-N,NCC1=CC[C@H]([C@H](O1)O[C@@H]1[C@@H](N)C[C@H]([C@@H]([C@H]1O)O[C@H]1OC[C@]([C@@H]([C@H]1O)NC)(C)O)N)N,0.349174945,-0.6594,447.526
,C2181,USAAVKOPISTKKF-UHFFFAOYSA-N,CCCCCCCCCCCCCCCC[NH+](C)C.[Cl-],-6.537272992,1.6162,305.97
,C8640,USAHOPJHPJHUNS-IFCNUISUSA-N,OC(=O)CN(C(=O)N)/N=C/c1ccc(o1)[N+](=O)[O-],-0.752436865,1.2105,256.172
,C3543,USDIZUOMBXWPLQ-FJBFXRHMSA-N,Clc1ccccc1CNCCCNCc1ccccc1Cl.Cl.Cl,-4.487299549,6.6487,396.182
,C8364,USIUVYZYUHIAEV-UHFFFAOYSA-N,OS(=O)(=O)O.O[C@H]1C=C[C@@H]2[C@@]34[C@H]1Oc1c4c(C[C@H]2N(CC3)C)ccc1O.O[C@H]1C=C[C@@H]2[C@@]34[C@H]1Oc1c4c(C[C@H]2N(CC3)C)ccc1O,-1.015709276,2.7,668.754
,C1754,USJULHZFGFGGBZ-UHFFFAOYSA-M,CCCCCCCCCOc1ccc(c2c1cccc2)C(=N)[NH+](CCCC)CCCC.[Cl-],-10.49356261,3.8834,461.123
,C460,USKAVCMWCUTATL-UHFFFAOYSA-N,c1ccc(cc1)Oc1ccccc1,-3.96,3.4789,170.207
,C4668,USMNOWBWPHYOEA-MRTMQBJTSA-N,[Bi]Oc1cccc2c1nccc2.O.O,-3.62681602,1.9493,389.161
,C2898,USPWUOFNOTUBAD-UHFFFAOYSA-N,O=C1C(C(=O)N(N1c1ccccc1)c1ccccc1)C1C(=O)N(N(C1=O)c1ccccc1)c1ccccc1,-5.232814663,4.4688,502.52
,C6233,USSIQXCVUWKGNF-UHFFFAOYSA-N,O=C1C[C@]2([C@@H]([C@H]1C)C2)C(C)C,-2.572179506,2.2576,152.233
,C3741,USWVMPGQVYZHCA-UHFFFAOYSA-K,Fc1c(F)c(F)c(c(c1F)C(F)(F)F)F,-4.30262244,3.4009,236.062
,C4399,UTEIARSBTFKRJL-UHFFFAOYSA-N,CCC(=O)C(c1ccccc1)(c1ccccc1)CC(N(C)C)C,-3.805032086,4.292,309.445
,C5707,UTGZOXAHFUVIRJ-UHFFFAOYSA-M,[O-]C(=O)C(Oc1ccc(cc1)Cl)(C)C.[O-]C(=O)C(Oc1ccc(cc1)Cl)(C)C.[Al+3].[OH-],-2.907594789,2.3178,471.264
,C3695,UTIYGJDWWLIDQY-STHAYSLISA-N,CC[NH+](CCNC(=O)C(c1ccccc1)c1ccccc1)CC.[Cl-],-4.352682315,-0.7457,346.894
,C8832,UTMZWCTVPHAOJZ-UHFFFAOYSA-N,NC(=S)[N-]N/C=C/1\C=CC(=O)C=N1.[Na+],-0.462079693,0.6862,218.211
,C9904,UTUUGODMVOQPEQ-UHFFFAOYSA-N,N[C@H]1CO[C@H]1C(=O)O,0.93142827,-0.5026,117.103
,C3910,UTVALPBGSAUYNR-UHFFFAOYSA-N,Cc1ccc(cc1)c1nc2c(o1)cccc2,-4.168372971,3.8032,209.243
,C8216,UTXPWBKKZFLMPZ-UHFFFAOYSA-N,CCCCN1C(=S)SCC1=O,-1.163186613,1.5847,189.298
,C6993,UUAGAQFQZIEFAH-UHFFFAOYSA-N,O=[NH+]C=c1ccn(cc1)CCCn1ccc(=C[NH+]=O)cc1.[Cl-].[Cl-],-2.090555992,-7.8799,357.235
,C4022,UUCAQGDHTXMZSL-UHFFFAOYSA-N,Nc1ccc2c(c1)cc1c(n2)cccc1,-4.093540204,3.5514,194.232
,C7890,UUDDUULTKKTFNC-UHFFFAOYSA-N,FC(=C(F)F)Cl,-1.462733729,2.2603,116.47
,C5970,UUFIZWJFMXMPSW-UHFFFAOYSA-N,CCCC(c1ccccc1)(C(=O)OC1CCCN(C1)CC)O,-2.735931768,2.6397,305.412
,C5280,UUIQMZJEGPQKFD-UHFFFAOYSA-N,CCCC(COC(=O)N)(COC(=O)NCCC)C,-3.17498166,3.1155,260.33
,C2937,UUKWKUSGGZNXGA-UHFFFAOYSA-N,CN(C(CC12CC3(C)CC(C2)(CC(C1)(C3)C)C)C)C.Cl,-5.180350373,5.5153,299.922
,C1421,UULSDCUWMKTMND-UHFFFAOYSA-N,CCCC(=O)OC,-0.81999999,0.9595,102.132
,C7357,UULSXYSSHHRCQK-UHFFFAOYSA-N,NC(=O)c1cc(cc(c1)[N+](=O)[O-])[N+](=O)[O-],-1.839829314,2.3486,211.132
,C8542,UUNWYYVWDSDNMG-UHFFFAOYSA-N,NC(=O)CNc1ccc(cc1)[As](=O)(O)O,-0.859282501,-1.0819,274.106
,C4518,UUQQOJIPZZOPGZ-UHFFFAOYSA-N,CCC(c1ccc(cc1)CC(C)C)C(=O)O,-3.70997388,3.4633,220.307
,C3551,UURAUHCOJAIIRQ-QGLSALSOSA-N,O=C(N1C(C)(C)CCCC1(C)C)CNCc1ccccc1,-4.48141101,3.6747,288.428
,C8307,UUSQFLGKGQEVCM-UHFFFAOYSA-M,NCCCCCCCF,-1.087110363,2.5654,133.207
,C2486,UUSSUURLYUEPHL-UHFFFAOYSA-N,CCN(CCSCC(=O)O[C@@H]1C[C@@](C)(C=C)[C@@H](O)[C@@H]([C@]23[C@H]([C@@]1(C)[C@H](C)CC2)C(=O)CC3)C)CC,-5.851082475,4.9679,493.742
,C6104,UUTBHLBAOBZVBU-UHFFFAOYSA-N,CCCCCCCCCCCC[N+](Cc1ccccc1)(CCO)CCO.[Cl-],-2.658464889,1.9129,400.038
,C3418,UUVDJIWRSIJEBS-UHFFFAOYSA-N,OC(=O)C(=O)[O-].COc1ccc2c(c1O)CC[NH+](C2CCc1ccc(cc1)Cl)C,-4.612345526,2.189,421.871
,C7011,UUVWYPNAQBNQJQ-UHFFFAOYSA-N,CN1CC2CCC(C1)N2C(=O)c1ccncc1,-2.083140388,0.876,231.294
,C9030,UUZYBYIOAZTMGC-UHFFFAOYSA-M,COc1ccc(cn1)N,-0.149192876,1.2536,124.141
,C616,UVAZQQHAVMNMHE-CZUORRHYSA-N,CN(c1nc(nc(n1)N(C)C)N(C)C)C,-3.3599999,0.0696,210.279
,C9679,UVCOILFBWYKHHB-UHFFFAOYSA-N,C[N+](Cc1ccccc1)(C)C.[Br-],0.637990908,-1.1032,230.145
,C6335,UVDDFTZLVFIQFL-VOTSOKGWSA-N,CCC(=O)O[C@@]1(CCN(C[C@H]1C)C)c1ccccc1,-2.515789092,2.7446,261.359
,C4693,UVGQOPZEALYXKP-UHFFFAOYSA-N,O=C1CN=C(c2c(N1)ccc(c2)Cl)c1ccccc1F,-3.611589583,2.8422,288.704
,C8390,UVGXKOHVQFOLQY-UHFFFAOYSA-N,ONC(=O)/C=C/c1ccccc1,-0.987346975,1.5961,163.173
,C6631,UVITTYOJFDLOGI-LICQEQMYSA-N,C=CCOc1ccc(cc1)NC(=O)C,-2.326831234,2.2828,191.226
,C4142,UVJDTSQDYNCCLT-UHFFFAOYSA-M,CC[NH2+]C(c1ccc(cc1)OC)Cc1ccc(cc1)OC.[Cl-],-4.009336213,-0.4251,321.842
,C5760,UVJHQYIOXKWHFD-UHFFFAOYSA-N,CCC(=O)OC1(C[C@H](C)N(C[C@H]1C)C)c1ccccc1,-2.873867536,3.1331,275.386
,C6135,UVKFSMBPRQBNCH-UHFFFAOYSA-M,C1CCCN(CCC1)/C=C/C=C/C=[N+]1CCCCCCC1.[Cl-],-2.637897582,1.2705,324.932
,C1079,UVKXJAUUKPDDNW-NSCUHMNNSA-N,C1=CCC=CC1,-1.97,1.8926,80.1277
,C6181,UVKZSORBKUEBAZ-UHFFFAOYSA-N,CC[N+](C(CC(c1ccccc1)c1ccccc1)C)(C)C.[Br-],-2.605664527,1.6974,362.347
,C1380,UVMLHMAIUVSYOL-UHFFFAOYSA-N,C/C=C/CC#N,-0.95999998,1.47618,81.1158
,C6483,UVOPKOZEXXZCSA-UHFFFAOYSA-L,CN1CCN(CC1)C(c1ccccc1)c1ccccc1,-2.425514657,2.8992,266.381
,C8700,UVRGEKVEVCNKET-UHFFFAOYSA-N,CC(=CCN=C(N)N)C,-0.66781675,1.6266,127.188
,C9340,UVRZZNNYGUAYNU-UHFFFAOYSA-N,CC[N+](CCc1ccc(cc1)[N+](CC)(C)C)(C)C.[I-].[I-],0.297363559,-3.0798,504.232
,C8378,UVSAFUWNKNTPOZ-UHFFFAOYSA-L,OCC(CNc1ccc(cc1)C)O,-0.998170684,0.8331,181.232
,C6451,UVTBZAWTRVBTMK-UHFFFAOYSA-N,C=CCN1C(=O)c2ccccc2CS1(=O)=O,-2.442774538,2.1769,237.275
,C9229,UVTNFZQICZKOEM-UHFFFAOYSA-N,CC[N+](CCNc1nc(NCC[N+](CC)(CC)CC)nc(n1)Cl)(CC)CC.[I-].[I-],0.183204099,-2.7442,655.83
,C3351,UVUYSPTYWQXNLX-UHFFFAOYSA-N,CCOC(=O)C1(CCN(CC1)CCOCc1ccccc1)c1ccccc1,-4.681015586,3.738,367.481
,C4296,UVWXUICOVOTXNQ-UHFFFAOYSA-N,CC(N(C(C)C)CCC(c1ccccn1)(c1ccccc1)C(=O)N)C,-3.878765183,4.0622,339.474
,C8524,UWBICEKKOYXZRG-WNHSNXHDSA-N,C=CCN1C(=S)NCC1=O,-0.875626036,0.1558,156.206
,C3193,UWEYRJFJVCLAGH-UHFFFAOYSA-N,OC(=O)C(CC(=O)O)(CC(=O)O)O.COc1ccc2c(c1)C1(OCC(O1)CN1CCOCC1)c1ccccc1CO2,-4.873605176,1.2257,575.561
,C3807,UWFYSQMTEOIJJG-FDTZYFLXSA-N,O=C1CC[C@]2(C(=C1)CC[C@@H]1[C@@H]2CC[C@]2([C@H]1CC[C@]12CCC(=O)O1)C)C,-4.242156353,4.5941,342.472
,C1801,UWHUTZOCTZJUKC-JKSUJKDBSA-N,FC12C(F)(C(F)(F)C(C(C2(F)F)(F)F)(F)F)C(F)(F)C(C(C1(F)F)(F)F)(F)F,-9.193426391,5.5126,462.078
,C2046,UWIGKXXCHKVGHW-UHFFFAOYSA-N,CC(=O)O[C@@]1(CC[C@@H]2[C@]1(C)CC[C@H]1[C@H]2C=C(C2=CC(=O)[C@H]3[C@@H]([C@]12C)C3)Cl)C(=O)C,-7.025683085,4.6076,416.938
,C8163,UWOZUINVJAAGAU-UHFFFAOYSA-L,Oc1ccc2c(c1)OC[C@]1([C@@H]2c2cc(O)c(cc2C1)O)O,-1.218498477,1.6149,286.279
,C463,UWSDONTXWQOZFN-UHFFFAOYSA-N,CCCCCCOC(=O)c1ccc(cc1)N,-3.95,3.5871,221.295
,C9271,UWTUEMKLYAGTNQ-OWOJBTEDSA-N,CC[N+](CCc1ccc(cc1)[N+](CC)(CC)CC)(CC)CC.[I-].[I-],0.251542964,-1.5194,560.338
,C1537,UWVYIEXDBDLRBV-UHFFFAOYSA-M,O=NN1CCCCC1,-0.17,1.0916,114.146
,C1294,UWWYQKBJJBZVHJ-UHFFFAOYSA-N,Br/C=C/Br,-1.3200001,2.2474,185.845
,C9411,UWXRMZYMTHVJOU-UHFFFAOYSA-N,CC(=O)Nc1c[n+](CCC[N+](C)(C)C)cc2c1cccc2.[Br-].[Br-],0.349483638,-3.737,447.208
,C1821,UWYHMGVUTGAWSP-JKIFEVAISA-N,C(=C\C=[N+]1CCCC1)/C=C/N1CCCC1.C(=C\C=[N+]1CCCC1)/C=C/N1CCCC1.OC(=O)c1cc2ccccc2c(c1O)Cc1c(O)c(cc2c1cccc2)C(=O)O.O.O.O.O,-8.778692543,7.986,871.069
,C4428,UWYLQWLJGMLJQF-UHFFFAOYSA-N,COc1cc(ccc1OC)c1nc2c(s1)cc(cc2)CC(=O)O,-3.780491397,3.6076,329.37
,C3921,UWZDUHTYIUMENV-UHFFFAOYSA-N,OC(=O)[C@@H]1N2C(=O)[C@H]([C@H]2SC1(C)C)NC(=O)c1c(C)onc1c1ccccc1,-4.158948178,2.2241,401.436
,C8919,UXAFRQPVHYZDED-ZZEDUEFDSA-N,CCC(NCC(c1ccc(cc1)N)O)C,-0.35161994,2.6624,208.3
,C7908,UXMKOLJFXKKWEQ-UHFFFAOYSA-N,OCC(COc1ccc(cc1)OC)O,-1.450187765,0.4272,198.216
,C5631,UXMTUUFYPGQFAE-UHFFFAOYSA-N,OC[C@H]1O[C@@H](Oc2cc3CC[C@@H](c4c(c3c(c2OC)OC)ccc(c(=O)c4)OC)NC(=O)C)[C@@H]([C@H]([C@@H]1O)O)O,-2.955240652,0.4326,547.551
,C8038,UXPYIAWFQKSHNV-UHFFFAOYSA-N,O=C1C=CC(O1)c1ccccc1,-1.320925163,1.8407,160.169
,C3444,UXQSJMBMFDCPMM-UHFFFAOYSA-N,COc1ccc2c(c1)c(CC(C(=O)O)N)cn2Cc1ccccc1,-4.587810051,3.3529,324.374
,C1713,UXZFQZANDVDGMM-UHFFFAOYSA-N,CCCCCCCCCCCCCCCC(=O)OCCCCOC(=O)CCCCCCCCCCCCCCC,-16.25939172,11.8156,566.939
,C5023,UXZQBAUCVHFILC-UHFFFAOYSA-N,CC[NH+](CCOC(=O)c1cccc2c1cccc2)CC.[Cl-],-3.371022702,-1.0747,307.815
,C2979,UXZXGJYVUINDEL-UHFFFAOYSA-M,Ic1cc(I)c2c(c1O)nccc2,-5.131428131,3.1496,396.951
,C3377,UYBFTPVNECIZCO-UHFFFAOYSA-M,CCN(CCOC(=O)N(c1ccccc1)c1ccccc1)CC.Cl,-4.655610492,5.1051,348.867
,C6480,UYEUUXMDVNYCAM-UHFFFAOYSA-N,CCCN1C(=O)[N-]C(=O)C(C1=O)(CC)CC.[Na+],-2.426887538,1.3337,248.254