Name,Compound ID,InChIKey,SMILES,logS,logP,MW
,C4329,YQYVFVRQLZMJKJ-UHFFFAOYSA-N,Oc1cccc(c1)Nc1ccccc1C(=O)O,-3.853370202,2.907,229.231
,C182,YRCWQPVGYLYSOX-UHFFFAOYSA-N,O[C@H]1C=C[C@H]2[C@@H]1[C@]1(Cl)C(=C([C@]2(C1(Cl)Cl)Cl)Cl)Cl,-5.46,3.995,354.872
,C3720,YREQHYQNNWYQCJ-UHFFFAOYSA-N,Oc1ccc2c(c1)C1(C)CCN(C(C2)C1C)CC1CC1,-4.321681952,3.2643,271.397
,C9828,YRGAYAGBVIXNAQ-UHFFFAOYSA-N,CNCC(c1ccc(cc1)O)O,0.776742974,1.0359,167.205
,C18,YRHYCMZPEVDGFQ-UHFFFAOYSA-N,CCOc1ccc(cc1)C(COCc1cccc(c1)Oc1ccccc1)(C)C,-8.6000004,6.372,376.488
,C784,YRJLEOWRVNBAOI-UHFFFAOYSA-N,COc1ccc(cc1)Cl,-2.78,2.3486,142.583
,C301,YRKCREAYFQTBPV-UHFFFAOYSA-N,CCCCCCCCCC(=O)OC,-4.6300001,3.3001,186.291
,C9704,YRKLNGSPBGWYKJ-TYMHPWAKSA-N,CC(C(c1ccc(c(c1)O)O)O)N.Cl,0.658239155,1.9807,219.665
,C1577,YRMLFORXOOIJDR-UHFFFAOYSA-N,CC(=O)CC(=O)C,0.22,0.5545,100.116
,C2724,YRPPIMNBOSCROA-UHFFFAOYSA-L,CCC(=CCN1CC[C@@]23[C@H]([C@H]1Cc1c3cc(cc1)O)CCCC2)CC.Br,-5.471410518,6.093,420.426
,C1190,YRRWOZRDSFWKLZ-UHFFFAOYSA-L,C=CCN(C(=O)C(Cl)Cl)CC=C,-1.62,1.9907,208.085
,C2160,YRSIFCHKXFKNME-LURJTMIESA-N,[O-]S(=O)(=O)[O-].CCCCN(C(=O)OCC[N+](CC)(C)C)CCCC.CCCCN(C(=O)OCC[N+](CC)(C)C)CCCC,-6.600804051,5.9858,642.932
,C8210,YRSXWPMXFWKKLH-UHFFFAOYSA-N,C[N+](Cc1ccccc1)(CCCCCCCCCC[N+](Cc1ccccc1)(C)C)C.[Br-].[Br-],-1.174190756,0.6684,570.486
,C1396,YRTPZXMEBGTPLM-UVTDQMKNSA-N,CC[C@@H](C(O)(C)C)C,-0.88999999,1.8034,116.201
,C3486,YRUPBAWWCPVHFT-UHFFFAOYSA-N,CCC(=O)c1ccc(c2c1cccc2)OCC(CN1CCN(CC1)c1ccccc1)O.Cl.Cl,-4.54846719,5.6013,491.45
,C5288,YRZBWKXTJMKJIO-UHFFFAOYSA-N,O=C1O/C(=C\c2ccccc2)/c2c1cccc2,-3.173641822,3.3551,222.239
,C7046,YRZQHIVOIFJEEE-UHFFFAOYSA-N,Oc1ccc(cc1)Nc1ccc(cc1)O,-2.060643909,2.9144,201.221
,C7563,YSAUAVHXTIETRK-AATRIKPKSA-N,FCCCCSC(=O)C,-1.696694794,2.0158,150.214
,C5585,YSEKTJDZLUWDBU-UHFFFAOYSA-N,Clc1ccc(cc1)Nc1ncnc(n1)N,-2.985449184,2.505,221.646
,C3659,YSEMEGXOKULCML-UHFFFAOYSA-N,CN1CCCN=C1/C=C/c1cccs1,-4.381381161,1.8688,206.307
,C5474,YSKCXFJVTRCGGD-UHFFFAOYSA-N,Clc1ccc(cc1)C1[NH2+]CC[NH2+]Cc2c1cccc2.[Cl-].[Cl-],-3.054389477,-1.7838,345.694
,C430,YSMRWXYRXBRSND-UHFFFAOYSA-N,CCn1c2ncccc2c(=O)n(c2c1nc(Cl)cc2)C,-4.1100001,2.5187,288.732
,C4115,YSSSPARMOAYJTE-UHFFFAOYSA-N,Brc1cnc(c(c1)Br)OCCCCCNCCSS(=O)(=O)O,-4.031262266,4.753,478.22
,C2170,YSUCWSWKRIOILX-UHFFFAOYSA-N,Cc1ccccc1OP(=O)(Oc1ccccc1C)Oc1ccccc1C,-6.557682892,6.2567,368.363
,C3333,YSVIRKSYBGDUSI-UHFFFAOYSA-N,O1CCOc2ccccc2OCCOCCOc2c(OCC1)cccc2,-4.693469164,2.9488,360.401
,C9085,YSXKPIUOCJLQIE-UHFFFAOYSA-N,N/C(=N\CCc1ccccc1)/N=C(N)N.Cl,-0.061098699,2.7201,241.721
,C7980,YSYILHQNTLENLJ-UHFFFAOYSA-N,CCC(N(C)C)(CC)C.Br,-1.383028741,3.0848,210.155
,C4024,YSZGCNKBKQQPAH-UHFFFAOYSA-N,OC(C1CC2CC1C=C2)(c1ccccc1)CCN1CCCCC1,-4.093049541,3.9003,311.461
,C9630,YTBDPHYVGACIPC-UHFFFAOYSA-N,Oc1ccc(c(c1)[N+](C)(C)C)O.[Br-],0.605338228,-1.7015,248.117
,C7448,YTBRNEUEFCNVHC-UHFFFAOYSA-N,CC(=O)Nc1ccccc1C(=O)C,-1.7749841,1.9206,177.2
,C4259,YTCSKUDULFDUDD-UHFFFAOYSA-N,O=c1[nH]c(NCCSCc2nc[nH]c2C)ncc1Cc1ccc2c(c1)OCO2,-3.914043297,2.5392,399.467
,C107,YTGJWQPHMWSCST-UHFFFAOYSA-N,Clc1ccc(cc1)c1ccc(cc1)Cl,-6.5599999,4.6604,223.098
,C2601,YTHVGJSPULXGNY-UHFFFAOYSA-N,NCCCN1c2ccc(cc2Sc2c1cc(Cl)cc2)O,-5.659497421,4.7624,306.81
,C9215,YTIJUXVIZLYQTB-UHFFFAOYSA-N,CC(C(=O)NCC(=O)O)S,0.162235377,-0.1036,163.195
,C9918,YTIZHZPRFYKRIG-RUZUBIRVSA-N,NCCCF,0.999988751,1.005,77.1007
,C6778,YTLQFZVCLXFFRK-UHFFFAOYSA-N,[O-]S(=O)(=O)[O-].C/N=C(/NCc1ccccc1)\[NH2+]C.C/N=C(/NCc1ccccc1)\[NH2+]C,-2.230807973,0.435,452.571
,C6329,YTPLMLYBLZKORZ-UHFFFAOYSA-N,CC(=O)O[C@H]1[C@H](OC(=O)C)[C@H](O[C@H]1n1ccc(nc1=O)N)COC(=O)C,-2.519361401,-0.2694,369.327
,C3252,YTRMTPPVNRALON-UHFFFAOYSA-N,c1ccc(cc1)Cc1nc2c([nH]1)cccc2,-4.801418328,3.1537,208.258
,C1256,YTRNSQPXEDGWMR-UHFFFAOYSA-N,c1cccs1,-1.45,1.7481,84.1396
,C5265,YTSPICCNZMNDQT-UHFFFAOYSA-M,OC(=O)c1cc(nc2c1cccc2)c1ccccc1,-3.192548289,3.6,249.264
,C6187,YTUMWOBUZOYYJQ-UHFFFAOYSA-N,OC(=O)C(c1ccccc1)(C1CCCCC1)O,-2.601124919,2.5391,234.291
,C2027,YTWIPINUWDJHFC-UHFFFAOYSA-N,CC[N+](CCSC1=Nc2ccccc2N=C(C1)c1ccc(cc1)Sc1ccccc1)(CC)C.[I-],-7.076539254,3.4871,601.608
,C3549,YTZKOQUCBOVLHL-UHFFFAOYSA-N,CC(c1ccc(cc1)C1CCCCC1)C(=O)O,-4.482430772,3.9224,232.318
,C4873,YUFRAQHYKKPYLH-UHFFFAOYSA-N,NC1=NCC(O1)CN1CCN(CC1)c1cccc(c1)C(F)(F)F,-3.481694001,1.6797,328.333
,C531,YUJCWMGBRDBPDL-UHFFFAOYSA-N,CC(c1ccccc1)(C)C,-3.6600001,2.9841,134.218
,C818,YUKILTJWFRTXGB-UHFFFAOYSA-N,c1ccc2c(c1)ccc1c2nccn1,-2.6800001,2.783,180.205
,C8972,YURJSTAIMNSZAE-HHNZYBFYSA-N,O=C1NC(=O)CC(C1)(C)C,-0.257091381,0.778,141.168
,C783,YUTFQTAITWWGFH-UHFFFAOYSA-N,COc1cccc(c1)Cl,-2.78,2.3486,142.583
,C2330,YUWFEBAXEOLKSG-UHFFFAOYSA-N,OC[C@H]1O[C@@H](O[C@H]2C[C@]3(C)[C@@H]([C@@]4([C@@H]2C(C)(C)[C@@H](O)CC4)C)C[C@H]([C@H]2[C@@]3(C)CC[C@@H]2[C@@](O[C@@H]2O[C@H](CO)[C@H]([C@@H]([C@H]2O)O)O)(CCC=C(C)C)C)O)[C@@H]([C@H]([C@@H]1O)O)O,-6.144733631,1.1198,801.013
,C6859,YUZAZXWFLXMQIX-UHFFFAOYSA-N,CC(=O)c1cc2c(o1)cccc2,-2.171967838,2.6354,160.169
,C209,YVBCSKYYMNEPHE-PKLMIRHRSA-N,Cc1c(C)c(C)c(c(c1C)C)C,-5.23,3.537,162.271
,C6260,YVBCULSIZWMTFY-UHFFFAOYSA-N,CCCCCCSCCN1CSCC1.Cl,-2.559613874,4.0461,269.898
,C3371,YVBGGZGCBWNVDX-UHFFFAOYSA-N,CCCC[NH+]1CCc2c3[C@H]1Cc1ccc(c(c1c3ccc2)O)O.[Cl-],-4.660387331,1.1763,345.863
,C1273,YVBOFDGPWVOQBW-UHFFFAOYSA-N,CCCC(CCC)O,-1.4,1.9475,116.201
,C2583,YVGGHNCTFXOJCH-UHFFFAOYSA-N,CN(CCCC1c2ccccc2C=Cc2c1cccc2)C,-5.685727665,4.6441,277.403
,C2802,YVHMVAPVYRFIOA-UHFFFAOYSA-N,O=C(c1ccccc1)NC(c1ccccc1)CCN1CCCCC1.Cl,-5.345470544,5.1645,358.905
,C77,YVIAOUXBSTVVRH-UHFFFAOYSA-N,ClC(C(c1ccc(cc1)Cl)c1ccc(cc1)Cl)(Cl)Cl,-7.1500001,6.4955,354.486
,C7330,YVQVOQKFMFRVGR-VGOFMYFVSA-N,C=CCOc1ccc(cc1)CC(=O)NO,-1.864664096,1.6902,207.226
,C4711,YVSCOIUNVKGTND-UHFFFAOYSA-N,CCCCCSCCCCCN1CSCC1.Cl,-3.596187692,4.8263,297.951
,C6139,YVUQSNJEYSNKRX-UHFFFAOYSA-N,O=C1OC(CN1/N=C/c1ccc(o1)[N+](=O)[O-])CN1CCOCC1,-2.635876311,1.0737,324.289
,C9056,YVWGMAFXEJHFRO-UHFFFAOYSA-N,C1COC2(C1)CCCO2,-0.107789807,1.3035,128.169
,C3368,YVXHZKKCZYLQOP-UHFFFAOYSA-N,Fc1ccc(cc1)C(c1ccc(cc1)F)CCCN1CCC(CC1)n1c(=O)[nH]c2c1cccc2,-4.664225351,5.7949,461.546
,C5249,YWAGQZNXGUHOSX-UHFFFAOYSA-N,BrCC(C(F)F)(F)F,-3.207508077,2.2817,194.954
,C720,YWAKXRMUMFPDSH-UHFFFAOYSA-N,CCCCCC#C,-3.01,2.1999,96.1702
,C6339,YWBVHLJPRPCRSD-UHFFFAOYSA-N,CC(C(c1ccccc1)(c1ccccc1)O)CN(C)C.Cl,-2.513299981,3.9222,305.842
,C815,YWCASUPWYFFUHE-UHFFFAOYSA-N,CCCC=C,-2.6800001,1.9725,70.1329
,C347,YWDUZLFWHVQCHY-UHFFFAOYSA-N,Cn1cc(c2cccc(c2)C(F)(F)F)c(=O)c(c1)c1ccccc1,-4.4400001,4.7381,329.316
,C9543,YWEZXUNAYVCODW-RBUKOAKNSA-N,CS(=O)(=O)OCCCNCCCOS(=O)(=O)C.Cl,0.487023594,2.6631,325.831
,C171,YWKRLOSRDGPEJR-KIUKIJHYSA-N,Brc1cc(Br)cc(c1)Br,-5.5999999,3.9741,314.8
,C1912,YWLXEQKAKDKVBQ-UHFFFAOYSA-M,CCCCCc1cc(O)cc(c1[C@@H]1C=C(C)CC[C@H]1C(=C)C)O,-7.756426227,5.8465,314.462
,C2370,YWPDGABYTMCJDP-UHFFFAOYSA-N,CN(CC/C=C\1/c2ccccc2Sc2c1cc(Cl)cc2)C.Cl,-6.077111571,5.99,352.321
,C9319,YWPJUNSZBYZRBF-UHFFFAOYSA-N,[O-]C(=O)C1CSCN1.[Na+],0.287823113,-1.2724,155.151
,C3380,YWQGBCXVCXMSLJ-UHFFFAOYSA-N,Oc1cc(O)c2c(c1)OC(c1c2cccc1)(C)C,-4.651109545,3.3923,242.27
,C9558,YWQMRMQXEJSKHI-UHFFFAOYSA-L,Oc1cccc(c1)[N+](C(C)C)(C)C.[I-],0.512614147,-0.6285,307.171
,C2059,YWQOTUHPZDSZMT-UHFFFAOYSA-N,CCOC(=O)C(Oc1ccc(cc1)Cc1ccc(cc1)Cl)(CC)C,-6.968201328,5.0414,346.848
,C9394,YWSIDZBIXJZMTH-UHFFFAOYSA-N,CC[N+](CCCOCCC[N+](CC)(CC)CC)(CC)CC.[Br-].[Br-],0.335024432,-2.4558,462.347
,C6392,YWWBVUKXYSHFSO-UHFFFAOYSA-N,CON(C(=O)OCC(CO)(CC)CC)C,-2.483668526,1.4149,219.278
,C5412,YWWZVTFZBXVKRM-UHFFFAOYSA-N,CCCCN1C(=O)c2ccccc2CS1(=O)=O,-3.096166567,2.791,253.317
,C8143,YWXYYJSYQOXTPL-SLPGGIOYSA-N,CC(=O)C(C(C(F)(F)F)(C(F)(F)F)O)C(=O)C,-1.234776839,1.6363,266.138
,C2500,YWYPAAYCGZXQOQ-UHFFFAOYSA-M,Nc1c2cccc(c2nc2c1cccc2)c1ccccc1,-5.839725504,5.2184,270.328
,C8978,YWYQTGBBEZQBGO-BERLURQNSA-N,[O-][N+](=O)O[C@@H]1CO[C@H]2[C@@H]1OC[C@@H]2O,-0.253999724,-0.755,191.139
,C7752,YWYQTGBBEZQBGO-OQOYYRQQSA-N,CCC(=O)C(C(C[N+](C)(C)C)C)(c1ccccc1)c1ccccc1.[Cl-],-1.565444995,1.2981,359.933
,C2048,YWZJREHAYVHVRF-UHFFFAOYSA-N,O[C@@H]1CC[C@]2([C@@H](C1)CC[C@@H]1[C@@H]2CC[C@]2([C@H]1CC[C@@H]2[C@@H](O)C)C)C,-7.020271592,4.387,320.509
,C2570,YXFVVABEGXRONW-UHFFFAOYSA-N,O[C@@H]1CC[C@]2([C@@H](C1)CC[C@@H]1[C@@H]2CC[C@]2([C@H]1CC[C@@H]2[C@H](O)C)C)C,-5.715565905,4.387,320.509
,C6291,YXGDVAFWTHMZRW-UHFFFAOYSA-N,CN1C2CCC1CN(C2)C(=O)c1ccc(cc1)CC(=O)O,-2.539792081,1.1081,288.342
,C1000,YXIWHUQXZSMYRE-UHFFFAOYSA-N,Cc1ccccc1,-2.21,1.995,92.1384
,C7694,YXJHJCDOUFKMBG-BMZHGHOISA-M,CCCC(C(OC(=O)N)C)COC(=O)N,-1.600972916,2.3824,218.25
,C667,YXJLHNFODZRWOV-UHFFFAOYSA-N,Sc1nc2c(s1)cccc2,-3.1800001,2.585,167.251
,C7109,YXKTVDFXDRQTKV-HNNXBMFYSA-N,OC[C@H]([C@H]([C@H](Cn1c2cc(C)c(cc2nc2c1nc(=O)[n-]c2=O)C)O)O)O.[Na+],-2.032064199,-1.986,408.425
,C9074,YXNTXDQIDINLRU-UHFFFAOYSA-N,OS(=O)(=O)SCCNCC1CCC1,-0.078643821,2.3838,225.329
,C4881,YXOLAZRVSSWPPT-UHFFFAOYSA-N,CN([C@H](Cc1ccccc1)C)Cc1ccccc1,-3.474393747,3.7496,239.355
,C7965,YXTRQSJMIXMKRY-UHFFFAOYSA-N,CNC(CC(=O)c1ccccc1)(C)C.Cl,-1.398382649,3.4503,227.73
,C700,YXUJYFMPMLQKNJ-UHFFFAOYSA-N,Oc1ccc(c(c1)O)c1oc2cc(O)cc(c2c(=O)c1O)O,-3.0799999,1.988,302.236
,C2395,YXVCLPJQTZXJLH-UHFFFAOYSA-N,CCCCOc1ccc(cc1)OCC(=O)N(c1ccc(c(c1)OC)OC)CCN(CC)CC.Cl,-6.031897383,5.4385,495.051
,C2350,YXVFYQXJAXKLAK-UHFFFAOYSA-N,C1CCC(CC1)NCC1CCC(CC1)CNC1CCCCC1.Cl.Cl,-6.104942883,7.0232,379.451
,C6753,YXWKGHSFQVHHSO-UHFFFAOYSA-M,Cc1ncc(c(n1)N)C[n+]1csc(c1C)CCOP(=O)(OP(=O)(O)O)O.[Cl-],-2.246338188,-1.5731,460.767
,C579,YXYJKSUNCFFNLM-UHFFFAOYSA-N,Oc1ccc(cc1)c1ccccc1,-3.48,3.0592,170.207
,C9441,YXZFFTJAHVMMLF-UHFFFAOYSA-N,C[N+](CCC[n+]1ccc2c(c1)c1ccccc1[nH]2)(C)C.[Br-].[Br-],0.367340277,-3.2871,429.193
,C9280,YYBNDIVPHIWTPK-KYJQVDHRSA-N,NCCCNCCCSP(=O)(O)O.NCCCNCCCSP(=O)(O)O.O.O.O.O.O,0.260614366,2.1425,546.575
,C749,YYBRXCSJBNBHBZ-UHFFFAOYSA-N,BrCCC(C)C,-2.8900001,2.4274,151.045
,C9232,YYCRAERBSFHMPL-XFKAJCMBSA-N,OS(=O)(=O)O.CNC(=O)Oc1ccc2c(c1)[C@]1(C)CCN([C@@H]1N2C)C.CNC(=O)Oc1ccc2c(c1)[C@]1(C)CCN([C@@H]1N2C)C,0.187905224,4.7634,648.771
,C5995,YYEAOJQVTHGSAL-UHFFFAOYSA-N,CCCCN1CCC(CC1)(OC(=O)C)c1cccnc1.Cl.Cl,-2.719067766,4.2778,349.296
,C6421,YYGNTYWPHWGJRM-AAJYLUCBSA-N,COc1ccc2c3c1O[C@@H]1[C@@]43CCN([C@H](C2)[C@]4(O)C=CC1=O)C,-2.459005977,0.7621,313.348
,C4960,YYLJRENQBJIZGV-UHFFFAOYSA-N,CN1CCCC(C1)OC(=O)Nc1c(C)cccc1C,-3.414564661,2.957,262.347
,C1717,YYLLIJHXUHJATK-UHFFFAOYSA-N,C/C(=C\CC/C=C(/CC/C=C(/CCC=C(C)C)\C)\C)/CC/C=C(/CCC=C(C)C)\C,-14.59236714,10.605,410.718
,C2032,YYMCYJLIYNNOMK-MEKDEQNOSA-N,BrCCN(c1ccc(cc1)OC(=O)c1ccccc1C)CCBr,-7.060267847,4.8104,441.157
,C1176,YYNNRJWNBXEQTP-CQSZACIVSA-N,CC(=O)OC1CCCCC1,-1.67,1.8822,142.196
,C9877,YYNNRJWNBXEQTP-UHFFFAOYSA-N,OC1C[C@@H]2CC[C@H](C1)N2,0.851725707,0.5905,127.184
,C3788,YYQRGCZGSFRBAM-UHFFFAOYSA-N,OC(=O)[C@H](NS(=O)(=O)c1ccc(cc1)Br)Cc1ccccc1,-4.258271222,3.895,384.245
,C3787,YYRAOUMHYSDVJT-CZPWWGKQSA-N,OC(=O)C(NS(=O)(=O)c1ccc(cc1)Br)Cc1ccccc1,-4.258271222,3.895,384.245
,C7355,YYRYCTNXXHOENE-UHFFFAOYSA-N,ClC(COP(=O)(O)O)(Cl)Cl,-1.841372705,1.4659,229.384
,C2942,YYUAYBYLJSNDCX-UHFFFAOYSA-N,O[C@H]([C@H](C(=O)O)O)C(=O)O.COc1ccc(cc1)CCN1CC[C@@]23[C@H]([C@H]1Cc1c3cc(cc1)O)CCCC2,-5.175773656,2.5172,527.606
,C7041,YYZUSRORWSJGET-UHFFFAOYSA-N,O=C1c2ccccc2C(=O)C1(CN1CCOCC1)c1ccccc1,-2.062032342,2.2737,321.37
,C4071,YZCWLXAKCWCVOV-UHFFFAOYSA-N,Cc1onc(c1)NC(=O)C1=C(O)c2ccccc2S(=O)(=O)N1C,-4.062032571,2.5741,335.335
,C598,YZERDTREOUSUHF-UHFFFAOYSA-N,CCCCCCCC(=O)OCC,-3.3900001,2.91,172.265
,C6215,YZEUHQHUFTYLPH-UHFFFAOYSA-N,OC(CN1CCN(CC1)c1ccccc1)COc1ccccc1C(=O)C,-2.588133899,2.454,354.443
,C7870,YZFFIXWTRCZRMX-UHFFFAOYSA-N,Fc1c(F)c(C(=O)O)c(c(c1F)F)F,-1.479472378,2.0803,212.074
,C8781,YZFWTZACSRHJQD-UHFFFAOYSA-N,[O-][N+](=O)c1ncc[nH]1,-0.545244901,0.8411,113.075
,C6109,YZIYKJHYYHPJIB-UUPCJSQJSA-N,CCCCOc1c(OC)cccc1C(=O)OCC[NH+](C)C.[Cl-],-2.654637482,-1.8206,331.835
,C3116,YZKZXTBSUSEYQZ-UHFFFAOYSA-N,O=C1NC(=O)C(S1)Cc1ccc(cc1)OCC1(C)CCCCC1,-4.964077079,4.2587,333.445
,C3954,YZLDURCREAJHLI-UHFFFAOYSA-N,N/C(=N\CCCCCC/N=C(/N=C(/Nc1ccc(cc1)Cl)\N)\N)/N=C(/Nc1ccc(cc1)Cl)\N.OC[C@H]([C@H]([C@@H]([C@H](C(=O)O)O)O)O)O.OC[C@H]([C@H]([C@@H]([C@H](C(=O)O)O)O)O)O,-4.13758348,-0.7024,897.757
,C2402,YZMCKZRAOLZXAZ-UHFFFAOYSA-N,OP(=O)(O)O.CCOc1ccc(cc1OC)Cc1nc(C)cc2c1cc(OC)c(c2)OC,-6.017555248,3.6299,465.433
,C3649,YZNQMPPBWQTLFJ-TUFAYURCSA-N,CN1C(C)(C)CCC(C1(C)C)OC(=O)C(c1ccccc1)(c1ccccc1)O,-4.388388146,4.055,381.508
,C989,YZWKKMVJZFACSU-UHFFFAOYSA-N,Nc1ccc(cc1)S(=O)(=O)Nc1cc(C)nc(n1)C,-2.24,3.2114,278.33
,C3032,YZXBAPSDXZZRGB-DOFZRALJSA-N,CCCC(=O)OCC(=O)[C@@]1(O)CC[C@@H]2[C@]1(C)C[C@H](O)[C@H]1[C@H]2CCC2=CC(=O)CC[C@]12C,-5.068781662,3.1326,432.55
,C702,YZZVKLJKDFFSFL-UHFFFAOYSA-N,CCCCCBr,-3.0699999,2.5715,151.045
,C2055,ZACYCASOUWSTFF-UHFFFAOYSA-N,CCCCC/C=C\C/C=C\C/C=C\C/C=C\CCCC(=O)O,-6.986482276,6.2167,304.467
,C447,ZAEBUEMQCGDBRC-UHFFFAOYSA-N,COc1c(O)c(Cl)c(c(c1Cl)Cl)Cl,-4.02,4.0144,261.917
,C6997,ZAFNJMIOTHYJRJ-UHFFFAOYSA-N,O=C1Oc2c(C1(CC[NH+]1CCOCC1)c1ccccc1)cccc2.[Cl-],-2.087774189,-0.2299,359.847
,C7943,ZAGQHNDTRBHZTO-UHFFFAOYSA-N,CN1C2CCC1CN(C2)CCOC(=O)c1ccc(cc1)N,-1.424040514,1.661,289.373
,C1355,ZAHQPTJLOCWVPG-UHFFFAOYSA-N,CC(OC(C)C)C,-1.1,1.8198,102.175
,C2621,ZAHXYMFVNNUHCP-UHFFFAOYSA-N,CCCC(COC(=O)N(CC)CC)(COC(=O)N(CC)CC)C,-5.62205371,3.7496,330.463
,C7360,ZAJNGDIORYACQU-UHFFFAOYSA-N,OCCNCCNc1ccc(c2c1C(=O)c1c(C2=O)c(O)ccc1O)NCCNCCO.Cl.Cl,-1.83876851,2.3926,517.403
,C4335,ZAKOWWREFLAJOT-CEFNRUSXSA-N,C1CN=C(N1)Cc1cccc2c1cccc2.[O-][N+](=O)O,-3.852295679,2.3239,273.287
,C626,ZAMACTJOCIFTPJ-UHFFFAOYSA-N,CCCCCCCCC(=O)C,-3.3099999,3.326,156.265
,C1727,ZAOHKACVOFGZOI-UHFFFAOYSA-N,C[C@@H](CCC[C@]1(C)CCc2c(O1)c(C)c(c(c2C)OC(=O)C)C)CCC[C@@H](CCCC(C)C)C,-12.55736392,9.0599,472.743
,C1928,ZAPMTSHEXFEPSD-UHFFFAOYSA-N,CCOS(=O)(=O)c1cc(cc2c1ccc(c2)C(C)(C)C)C(C)(C)C,-7.594084617,6.2408,348.5
,C5966,ZATQNAGGARBGCM-UHFFFAOYSA-N,CN(Cc1c(Cl)cccc1NC(=O)c1ccccc1)CC(=O)N1CCOCC1.Cl,-2.739273241,3.6958,438.347
,C9450,ZAWVEQPFRDHWIY-UHFFFAOYSA-N,ClCCN1CCOCC1,0.376466153,0.4953,149.619
,C9117,ZAXKSTCANCQSEB-UHFFFAOYSA-N,CCOCC(COC(C)C)O,0.002059113,0.8088,162.227
,C1847,ZAYJPDOJULPTEJ-UHFFFAOYSA-N,Clc1ccc(c(c1)Cl)CNCC1CCC(CC1)CNCc1ccc(cc1Cl)Cl.Cl.Cl,-8.436839231,9.3718,533.189
,C6290,ZBAFFZBKCMWUHM-UHFFFAOYSA-N,CN1CC2CCC(C1)N2C(=O)c1ccc(cc1)CC(=O)O,-2.539792081,1.1081,288.342
,C7040,ZBBHBTPTTSWHBA-UHFFFAOYSA-N,CSc1c(Cl)nc(nc1N1CCN(CC1)C)N1CCOCC1,-2.062183064,1.5082,343.875
,C4451,ZBCBWPMODOFKDW-UHFFFAOYSA-N,CCC(=O)N(c1ccccn1)C(CN1CCCCC1)C,-3.761530306,2.6369,275.389
,C2808,ZBCOWAGFAVHZHK-UHFFFAOYSA-N,COC(=O)C1=C(C)NC(=C(C1c1cccc(c1)[N+](=O)[O-])C(=O)OCCN(Cc1ccccc1)C)C,-5.339383966,4.5298,479.525
,C9915,ZBEKOEYCWKIMGU-UHFFFAOYSA-N,OCCNCCO,0.978244419,-1.0485,105.136
,C2704,ZBGALQUZONQCFB-UHFFFAOYSA-N,OC(=O)C(=O)[O-].C[NH+](CCCn1c2ccc(cc2c2c1cccc2)Cl)C,-5.500606588,0.8034,376.834
,C8636,ZBIAKUMOEKILTF-UHFFFAOYSA-N,CCN1CCNC(=O)C1=O,-0.758319624,-0.7686,142.156
,C2285,ZBIWEHXTTKECOE-UHFFFAOYSA-N,ClCCN(c1ccc(cc1)OC(=O)c1ccc(cc1)C)CCCl,-6.261299857,4.4982,352.255
,C4559,ZBJBRUSGEJORQL-UHFFFAOYSA-N,O=C(Nc1c(C)cccc1C)CN1CCN(CC1)CCCC(c1ccc(cc1)F)c1ccc(cc1)F,-3.691635735,5.6988,491.615
,C7195,ZBJWWKFMHOAPNS-UHFFFAOYSA-N,C#CCNC(=O)OCC(COC(=O)N)(CC)C,-1.964352836,1.9486,242.272
,C4433,ZBLIDPKQJOFMPF-UHFFFAOYSA-N,NC(=O)Oc1ccc(cc1)Cc1ccccc1,-3.776630866,3.4352,227.259
,C6756,ZBLNPMXAFVVOQK-UHFFFAOYSA-N,Ic1cc(c2c(c1O)nccc2)S(=O)(=O)O,-2.244418163,2.8725,351.118
,C4173,ZBMZVLHSJCTVON-UHFFFAOYSA-N,CCCCOc1nc(OCCCC)cc(c1)C(=O)NN,-3.988358323,3.1341,281.351
,C6236,ZBRCAASZBMWIDA-QFPUCQTMSA-N,O=NN1C(C)(C)CCCC1(C)C,-2.569952569,2.6488,170.252
,C7568,ZBTMRBYMKUEVEU-UHFFFAOYSA-N,CC(NCC(c1ccc(cc1)NS(=O)(=O)C)O)C,-1.693760133,2.6342,272.364
,C8792,ZBUVYROEHQQAKL-UHFFFAOYSA-N,O[C@H]([C@H]1OC(=O)[C@H]([C@H]1O)O)/C=N/NC(=O)c1ccncc1,-0.525610028,-1.8038,295.248
,C663,ZCBJDQBSLZREAA-UHFFFAOYSA-N,Cc1ccc(cc1)Br,-3.1900001,2.7575,171.034
,C5305,ZCDHRBAYNFWZBH-UHFFFAOYSA-N,CC(C(=O)c1ccc(cc1)C)CN1CCCCC1.Cl,-3.159943379,4.0396,281.821
,C2663,ZCDNRPPFBQDQHR-SSYATKPKSA-N,CC(=O)Oc1ccc(cc1)C1(Oc2ccccc2NC1=O)c1ccc(cc1)OC(=O)C,-5.555737902,3.9499,417.411
,C858,ZCEHOOLYWQBGQO-UHFFFAOYSA-N,CC(C1(CC=C(C)C)C(=O)NC(=O)NC1=O)C,-2.5899999,2.0087,238.283
,C2556,ZCIIPKQTVYFBHV-UHFFFAOYSA-N,CCOC(=O)Oc1c(OC)cc(cc1OC)C(=O)O[C@@H]1C[C@@H]2CN3CCc4c([C@H]3C[C@@H]2[C@@H]([C@H]1OC)C(=O)OC)[nH]c1c4ccc(c1)OC,-5.726688779,4.6357,666.715
,C6266,ZCKAMNXUHHNZLN-UHFFFAOYSA-N,CCN(CCOC(=O)C(c1ccccc1)(c1ccccc1)O)CC.Cl,-2.556639187,3.6095,363.878
,C5274,ZCKKHYXUQFTBIK-MDZDMXLPSA-N,SC/C(=N\CC12CC3CC(C2)(CC(C1)(C3)C)C)/N.Cl,-3.182453366,4.7723,302.906
,C7474,ZCKXWZJYZCFTMH-UHFFFAOYSA-L,CC(Cc1ccc(cc1)Cl)(N)C,-1.753648558,3.3201,183.678
,C4826,ZCKYMTCEZUCVKI-UHFFFAOYSA-L,CCOC(=O)/C=C\1/SC(C(=O)N1C)N1CCCCC1,-3.523654219,1.2839,284.374
,C6338,ZCMHKXGPLWEOBN-UHFFFAOYSA-N,CC[N+](CCCCC[N+]1(C)Cc2c(C1)c(Cl)c(c(c2Cl)Cl)Cl)(CC)C.[I-].[I-],-2.513683948,0.3839,682.076
,C4242,ZCQGVMCLCWQOPN-UHFFFAOYSA-N,C[N+]1(CCC[N+]2(C)CCCCC2)CCCCC1.[I-].[I-],-3.932765584,-3.4369,494.237
,C3317,ZCRYJNQQXADLBG-UHFFFAOYSA-N,C1CCN(C1)CCCC12CC3CC(C2)CC(C1)C3.Cl,-4.710415785,4.8187,283.88
,C3343,ZCSKNHZKNUEWOG-LVEZLNDCSA-N,Cc1ccc(cc1C)CCNCC1CCc2c(N1)cccc2.Cl,-4.68782698,5.1933,330.895
,C4416,ZCTJIMXXSXQXRI-KYJUHHDHSA-N,COC(c1cccc(c1)C(F)(F)F)CNCc1ccccc1.Cl,-3.791400634,5.3756,345.787
,C2837,ZCTXEAQXZGPWFG-UHFFFAOYSA-N,CN1CCN(CC1)CC1COC2(O1)c1ccccc1C=Cc1c2cccc1.OC(=O)/C=C/C(=O)O.OC(=O)/C=C/C(=O)O,-5.300021057,2.3337,594.609
,C1917,ZCUIZHJZCMBRPN-UHFFFAOYSA-N,COc1cc2c(cc1Oc1cc(OC)c(cc1C[C@@H]1N(C)CCc3c1cc(OC)c(c3)OC)OC)C[C@H]1c3c2c(OC)c(OC)cc3CCN1C,-7.726858108,6.9387,696.828
,C9500,ZCUPBJOZMPROIJ-UHFFFAOYSA-N,OCN1C(=O)NC(=O)C1NC(=O)NCNC(=O)NC1C(=O)NC(=O)N1CO,0.410835965,-2.7053,388.294
,C1029,ZCUZNOKYZBDPMI-LIXABZRUSA-N,NC1=C2N=CN=C2N=C=N1,-2.1199999,-1.8152,133.111
,C7653,ZDASUJMDVPTNTF-UHFFFAOYSA-N,CCCCn1c(=O)c2n(C)cnc2n(c1=O)C,-1.625229726,0.2338,236.27
,C2612,ZDCRWTFSSYLCBS-SNAWJCMRSA-N,COc1ccc(c(c1)C)CCN1CC[C@@]23[C@H]([C@H]1Cc1c3cc(cc1)O)CCCC2.Cl,-5.638903442,5.7502,428.007
,C3867,ZDGVLDKCQRCCKI-ICDZXHCJSA-N,Brc1cc(Br)c2c(c1O)nccc2,-4.193797448,3.4654,302.95
,C7260,ZDHWSRRZUPRQBD-UHFFFAOYSA-N,COc1cc(/C=C/C(=O)N2COCC2)cc(c1OC)OC,-1.920797532,1.4798,293.315
,C2637,ZDJJYFKGWFWSON-UHFFFAOYSA-N,CSc1ccc(cc1)CCN1CC[C@@]23[C@H]([C@H]1Cc1c3cc(cc1)O)CCCC2,-5.590721567,5.3531,393.585
,C6239,ZDKZHVNKFOXMND-UHFFFAOYSA-N,CCCN(C(C(=O)N(C)C)CC)C(=O)C=CC.CC=CC(=O)N(C(C(=O)N(C)C)CC)CC,-2.568636537,2.9457,466.657
,C2225,ZDLVTABGUOVWRV-UHFFFAOYSA-N,CNc1ccnc(n1)N1CCN(CC1)CCC(c1ccccc1)(c1ccccc1)c1ccccc1,-6.410898088,5.1409,463.617
,C7755,ZDMXWGVLXYXVTN-XKRXHFONSA-N,CC1CCC2C1C(=O)OC=C2C,-1.563531776,2.1093,166.217
,C2306,ZDNCYUQHNGXFDO-UHFFFAOYSA-N,Clc1ccc(nc1)OCCCNCCSSCCNCCCOc1ccc(cn1)Cl.Cl.Cl,-6.201363277,6.9678,564.42
,C1763,ZDPACSAHMZADFZ-UHFFFAOYSA-N,C/C(=C/CNCC1CCC(CC1)CNC/C=C(\CCC=C(C)C)/C)/CCC=C(C)C.Cl.Cl,-10.00056858,9.7432,487.632
,C6209,ZDPHROOEEOARMN-UHFFFAOYSA-N,O=C(C(=C)c1ccccc1)OC1CC[NH+](CC1)C.[Cl-],-2.591372967,-0.5067,281.778
,C5524,ZDPIZLCVJAAHHR-UHFFFAOYSA-N,COc1cc(OC)cc(c1C(=O)CCCN1CCCC1)OC.Cl,-3.02314889,3.511,343.846
,C561,ZDQJHKFXTFWZCY-UHFFFAOYSA-M,CCCCCCCCCCC(=O)O,-3.55,3.6018,186.291
,C3757,ZDQJMUIEQNGXTC-UHFFFAOYSA-N,O=c1c(Cl)c(C)[nH]c(c1Cl)C,-4.283389436,2.2985,192.043
,C8766,ZDQYSKICYIVCPN-UHFFFAOYSA-L,C1CCN(CC1)C=CC=CC=[N+]1CCCCC1.[Cl-],-0.562598318,-0.2899,268.825
,C6700,ZDTAJBBRWBBHSZ-LVEZLNDCSA-N,O=C1COc2c(N1CCC[NH+](C)C)cc(cc2)Cl.[Cl-],-2.272395516,-2.331,305.2
,C9169,ZDVJGWXFXGJSIU-SSDOTTSWSA-N,[O-]C(=O)CCC(=O)[O-].[Na+].[Na+],0.0913756,-2.7336,162.052
,C1814,ZDXPYRJPNDTMRX-GSVOUGTGSA-N,OC(=O)/C=C/C(=O)O.OC(=O)/C=C/C(=O)O.COc1cc(cc(c1OC)OC)C(=O)OCCN1CCN(CC1)CCCN1c2ccccc2Sc2c1cc(Cl)cc2,-8.921848136,5.1976,830.297
,C1278,ZDYJWDIWLRZXDB-UHFFFAOYSA-N,CC(CC[C@H](O)C)C,-1.38,1.8034,116.201
,C1475,ZDYMIDKNTKMLQP-UHFFFAOYSA-N,NC(=O)CC[C@H](C(=O)O)N,-0.55000001,0.0644,146.145
,C114,ZDYPMKZEUSYJQI-LZYBPNLTSA-N,Clc1ccc(cc1)C(=C(Cl)Cl)c1ccccc1Cl,-6.3600001,6.1879,318.025
,C6774,ZDZOTLJHXYCWBA-VCVYQWHSSA-N,O=C(c1ccccc1O)CCNCc1ccccc1.Cl,-2.234599141,3.9477,291.773
,C2749,ZEAJXCPGHPJVNP-UHFFFAOYSA-N,CN(CC/C=C\1/c2ccsc2CCc2c1cccc2)C,-5.443850257,4.2301,283.431