Name,Compound ID,InChIKey,SMILES,logS,logP,MW
,C1128,LIAPJIQUUKLLDZ-UHFFFAOYSA-N,O=C1[C@@]2(C)CC[C@@H](C1(C)C)C2,-1.85,2.4017,152.233
,C9895,LIAUJQLOCLVMMH-UHFFFAOYSA-N,CCCCC(=O)[O-].[Na+],0.906175728,-0.0735,124.114
,C3247,LIAWQASKBFCRNR-UHFFFAOYSA-N,COc1c(C(CCc2ccc(cc2)O)O)c(OCCN2CCCCC2)c(c2c1cco2)OC,-4.810964336,4.6244,455.543
,C3798,LIFOOCLGAAEVIF-UHFFFAOYSA-N,COC(=O)c1nc(C)c2c(c1)c1ccccc1[nH]2,-4.253580271,2.8111,240.257
,C6638,LIKMAJRDDDTEIG-UHFFFAOYSA-N,CCOc1ccc(cc1)NC(=O)CC(O)C,-2.321077058,1.8677,223.268
,C6093,LILHXRHKCXDQGU-UHFFFAOYSA-L,Cc1ccc2c(c1)c1CCCC3c1n2CCN3.Cl,-2.662197949,4.0611,262.778
,C650,LINOLFHDHJMDKP-UHFFFAOYSA-N,CCCCC=C,-3.23,2.3626,84.1595
,C9448,LINOMUASTDIRTM-QGRHZQQGSA-N,CC[N+]1(CCC[N+](C)(C)C)CCc2c(C1)cccc2.[Br-].[Br-],0.374431381,-3.3575,422.242
,C6226,LINPIYWFGCPVIE-UHFFFAOYSA-N,CN(CCCOC(=O)C(c1ccccc1)(c1ccccc1)O)C.Cl,-2.575872383,3.2194,349.852
,C8659,LINPVWIEWJTEEJ-HNNXBMFYSA-N,OC[C@@]12[C@@H](C=C(C(=O)[C@H]1O)C)O[C@H]1[C@]3([C@]2(C)C[C@H]1O)CO3,-0.727623047,-0.8377,296.316
,C951,LINQVIAARQIDQJ-UHFFFAOYSA-N,Clc1cc(Cl)c(c(c1)Cl)O,-2.3399999,3.3524,197.446
,C407,LIRCDOVJWUGTMW-ZWNOBZJWSA-N,COC(=O)[C@@]1(O)c2cc(Cl)ccc2c2c1cccc2,-4.1799998,2.7293,274.699
,C8053,LISFMEBWQUVKPJ-UHFFFAOYSA-N,CC(CCC=C(C)C)N,-1.314307777,2.7803,127.227
,C7013,LIXTXPYJKYXISW-UHFFFAOYSA-N,OC(=O)CCC(=O)OC[C@H]([C@@H](c1ccc(cc1)[N+](=O)[O-])O)NC(=O)C(Cl)Cl,-2.082476599,2.2388,423.202
,C1023,LIZXGILRVOONMO-UHFFFAOYSA-M,O=c1ccc2c([nH]1)cccc2,-2.1400001,1.5281,145.158
,C2742,LJAQABDSIONCIU-QALYCTJVSA-N,OC(=O)C(CC(=O)O)(CC(=O)O)O.CN(CC1COC2(O1)c1ccccc1CCc1c2cccc1)C,-5.447445626,1.7148,501.526
,C6404,LJBPZXANEYTOEF-ZSOIEALJSA-N,C=CCC1(CC(C)C)C(=O)NC(=NC1=O)[O-].[Na+],-2.472284038,0.8023,246.238
,C6761,LJDVATIOWGCFIY-UHFFFAOYSA-N,Oc1ccc2c(c1)[C@]13CCCC[C@H]3[C@@H](C2)NCC1.Br,-2.241383099,4.0251,324.256
,C6534,LJFYKIBJGUDIHL-UHFFFAOYSA-N,ClCCN(N/N=C/1\N=CN=C1C(=O)N)CCCl,-2.385100896,-0.4853,279.126
,C4410,LJOQGZACKSYWCH-LHHVKLHASA-N,CC1CCN(CC1)C(CCOC(=O)c1ccccc1)C,-3.79847721,3.2918,275.386
,C6971,LJOZMWRYMKECFF-UHFFFAOYSA-N,CCC(=O)N1CC2CCC(C1)N2C,-2.108419701,0.5772,182.263
,C4005,LJPLFJPOUHWADA-UHFFFAOYSA-N,CC[C@H]1CN2CC[C@H]1C[C@@H]2[C@H](c1ccnc2c1cc(OC)cc2)O,-4.10794497,3.3351,326.433
,C397,LJQWYEFHNLTPBZ-UHFFFAOYSA-N,O=C(c1ccccc1I)Nc1ccccc1,-4.21,3.6165,323.129
,C3539,LJSDXBKWNPXKES-BNNCGTOFSA-N,FC(C(C(Cl)(Cl)Cl)(F)F)F,-4.492402209,3.257,219.393
,C4894,LJSQFQKUNVCTIA-UHFFFAOYSA-N,CCCCOc1c(N)cccc1C(=O)OCCN(CC)CC,-3.464659681,3.5275,308.416
,C6273,LJWZOKOFCBPNAG-HULHSAFCSA-N,N#[N+]/C=C(/CC[C@@H](C(=O)N[C@H](C(=O)O)CC/C(=C/[N+]#N)/[O-])NC(=O)CC[C@@H](C(=O)O)N)\[O-],-2.552689279,1.52516,453.407
,C1290,LJXTYJXBORAIHX-UHFFFAOYSA-N,CCSCC,-1.34,1.7594,90.1872
,C5685,LJXVGZZEFUHOPD-UHFFFAOYSA-N,C/C=C\C(=O)O[C@@H]1C[C@@H]2[C@]3([C@@]1(C)[C@@]1(C)CC(=O)C(=C[C@H]1O2)C)CO3,-2.919595798,2.3461,332.391
,C7454,LKCAFSOYOMFQSL-UHFFFAOYSA-N,CCOC(=O)C1=C(C)NC(=C(C1)C(=O)OCC)C,-1.772187992,1.9827,253.294
,C9420,LKCWBDHBTVXHDL-UFFGTHJOSA-N,NC(=NCCCCSS(=O)(=O)O)N,0.356055998,2.0574,227.305
,C8575,LKDRXBCSQODPBY-BGPJRJDNSA-N,NOCc1ccc(cc1)[N+](=O)[O-].Cl,-0.816772261,3.0106,204.611
,C1481,LKHLFUVHHXCNJH-UHFFFAOYSA-N,NCC[C@H](C(=O)N[C@@H]1C[C@H](N)[C@H]([C@@H]([C@H]1O[C@H]1O[C@@H](CO)[C@@H]([C@H]([C@@H]1O)N)O)O)O[C@H]1O[C@@H](CN)[C@@H]([C@H]([C@@H]1O)O)O)O,-0.5,-5.2321,585.603
,C1620,LKHWKAGQNOMUFQ-UHFFFAOYSA-N,OC[C@@]1(O)OC[C@@H]([C@H]([C@@H]1O)O)O,0.63999999,-3.2198,180.156
,C13,LKJPSUCKSLORMF-UHFFFAOYSA-N,Clc1cc(Cl)c(cc1c1c(Cl)ccc(c1Cl)Cl)Cl,-8.6499996,7.274,360.878
,C8139,LKNZBZWIVXNDBF-UHFFFAOYSA-N,CCCNC(COC(=O)c1ccccc1)(C)C.Cl,-1.238325832,3.8145,271.783
,C863,LKPINBXAWIMZCG-UHFFFAOYSA-N,CON(C(=O)Nc1ccc(cc1)Cl)C,-2.5699999,2.4381,214.649
,C2067,LKPLKUMXSAEKID-UHFFFAOYSA-N,CCN(CCOC(=O)C(c1ccc2c(c1)cccc2)(c1ccc2c(c1)cccc2)O)CC.Cl,-6.932520575,5.9159,463.996
,C3511,LKQDFQLSEHWIRK-UKBVDAKRSA-N,CCN(CCOC(=O)C(c1ccccc1)c1ccccc1)CC.Cl,-4.528174541,4.5055,347.879
,C155,LKWPAJGJFSXUQP-UHFFFAOYSA-N,Clc1c(Cl)c([N+](=O)[O-])c(c(c1Cl)Cl)Cl,-5.8200002,5.385,295.335
,C3185,LKYQLAWMNBFNJT-UHFFFAOYSA-N,O[C@@H]1CC[C@]2([C@@H](C1)CC[C@@H]1[C@@H]2CC[C@]2([C@H]1CC[C@]2(O)C(=O)C)C)C,-4.880943446,3.7101,334.493
,C3411,LKZWCRGTHNZTQN-UHFFFAOYSA-N,c1ccc(cc1)C(c1ccccc1)CCN1CCN(CC1)c1cnccn1.Cl.Cl,-4.617851835,5.4277,431.401
,C4114,LLAFVHXEICRNDX-UHFFFAOYSA-L,CCOC(=O)C1(CCN(CC1)CCc1ccc(cc1)N)c1ccccc1,-4.033115835,3.9273,352.47
,C5173,LLEMOWNGBBNAJR-UHFFFAOYSA-N,c1ccc(cc1)c1nnc(s1)c1ccccc1,-3.26319527,3.8721,238.308
,C6764,LLFIVQPKUFPAFJ-UHFFFAOYSA-N,c1cc[n+](cc1)CCC[n+]1ccc2c(c1)cccc2.[Br-].[Br-],-2.240033911,-3.4869,410.146
,C925,LLHDHYPYFLBISK-UHFFFAOYSA-N,Oc1ccccc1c1ccccc1,-2.3900001,3.0592,170.207
,C3911,LLJORSYIDJJSNV-UHFFFAOYSA-N,CCN1CCCC(C1)OC(=O)Nc1c(C)cccc1Cl,-4.167105225,3.6921,296.792
,C8104,LLMBMJLSWMUILX-UHFFFAOYSA-N,NC(=S)C(c1cnccn1)c1ccccc1,-1.266984245,2.5949,229.301
,C8755,LLMGYOJUHDRDFJ-UHFFFAOYSA-N,CNC(=O)Oc1ccc(cc1)C[NH+](C)C.[Cl-],-0.573089923,-2.5558,244.718
,C6351,LLPOLZWFYMWNKH-CMKMFDCUSA-N,[NH3+]c1ccc(cc1)C(=O)NC1=Nc2c([NH2+]1)cccc2.[Cl-].[Cl-],-2.503541003,-4.4103,325.193
,C5990,LLQAOIITXFNWED-UHFFFAOYSA-N,CCCC1C(=O)n2n(C1=O)c1cc(C)ccc1nc2N(C)C.O.O,-2.722706227,2.3561,336.386
,C7628,LLQDKWNQIWGVIT-LAJPFITQSA-N,COc1ccc2c3c1O[C@@H]1[C@@]43CCN([C@H](C2)[C@@H]4CCC1=O)C,-1.639504478,1.8712,299.364
,C4727,LLQWRFCGJTVBGN-TYSVMGFPSA-N,N#CC(=NNc1ccc(cc1)Cl)C#N,-3.588719249,2.22806,204.616
,C5105,LLQWRFCGJTVBGN-UYXJWNHNSA-N,CNCC/C=C/1\C2CC3CC1CC(C2)C3.Cl,-3.307914705,4.1713,241.8
,C9097,LLROQAGEAVDYFP-MDZDMXLPSA-N,S[C@@H]1CC[C@@H]1C[NH3+].[Cl-],-0.028220947,-3.0593,153.673
,C9096,LLWOSCXMBDNLHR-UHFFFAOYSA-N,S[C@@H]1CC[C@H]1C[NH3+].[Cl-],-0.028220947,-3.0593,153.673
,C6355,LMBIKHIZFDMXHT-UHFFFAOYSA-N,CN(/N=N/c1ccccc1)C,-2.502032031,2.2469,149.193
,C4112,LMEJPVLOENSTRV-UHFFFAOYSA-N,Clc1ccc2c(c1)c(C)cc(n2)OCCCN1CSCC1.Cl,-4.036954144,4.7117,359.314
,C2427,LMEKQMALGUDUQG-UHFFFAOYSA-N,O=C1CC(C)(C)CC(=NNC(=O)c2cnc([nH]c2=O)C)C1=NNc1ccccc1,-5.964531676,2.4852,394.427
,C8577,LMFKRLGHEKVMNT-UJDVCPFMSA-N,NCC(Sc1ccc(cc1)Cl)(O)C,-0.815436139,2.7996,217.716
,C5561,LMHAGAHDHRQIMB-UHFFFAOYSA-N,Cn1cnc(c1Sc1ncnc2c1[nH]cn2)[N+](=O)[O-],-3.007842695,1.669,277.263
,C8565,LMHCYRULPLGEEZ-UHFFFAOYSA-N,CO[C@@H]([C@](C(=O)OCC1=CCN2[C@H]1[C@@H](O)CC2)(C(C)C)O)C,-0.829572711,0.2647,313.389
,C4522,LMINNBXUMGNKMM-UHFFFAOYSA-N,FC1(F)C(F)(F)C(C1(F)Cl)(F)Cl,-3.708268061,3.0798,232.939
,C266,LMIQERWZRIFWNZ-UHFFFAOYSA-N,CCCCCCCI,-4.8099999,3.3918,226.098
,C466,LMJSLTNSBFUCMU-QMMMGPOBSA-N,OC(=O)Cc1ccc2c(c1)N(C)c1c(S2)cccc1,-3.9400001,3.6112,271.334
,C8782,LMJSLTNSBFUCMU-UHFFFAOYSA-N,Oc1ccc2c(c1)cc[nH]2,-0.541255772,1.8735,133.147
,C817,LMNZTLDVJIUSHT-UHFFFAOYSA-N,ClC([C@H]1Nc2cc(Cl)c(cc2S(=O)(=O)N1)S(=O)(=O)N)Cl,-2.6800001,4.1497,380.656
,C6062,LMOINURANNBYCM-UHFFFAOYSA-N,ClC(C1Nc2cc(Cl)c(cc2S(=O)(=O)N1)S(=O)(=O)N)Cl,-2.677423308,4.1497,380.656
,C434,LMOMSYAUAHTACH-SEYXRHQNSA-N,COP(=S)(SCN1C(=O)c2c(C1=O)cccc2)OC,-4.0999999,3.0791,317.321
,C9727,LMPUTVDYONLZKF-OCIYDRMTSA-N,OC(c1cc(O)cc(c1)O)CNC(C)C,0.675180669,1.5201,211.258
,C3892,LMQXNURVVYWBSR-UHFFFAOYSA-N,CCCCNC(=O)/C(=C(\c1ccccc1)/C)/C,-4.179557423,3.7872,231.333
,C3457,LMRGURFWGRDIIQ-UHFFFAOYSA-N,C=CCN1CC[C@@]23[C@H]([C@H]1Cc1c3cc(cc1)OC)CCCC2.Br,-4.57789833,4.8356,378.346
,C7430,LMTGCJANOQOGPI-UHFFFAOYSA-N,CCCc1[nH]c2c(n1)n(C)c(=O)n(c2=O)C,-1.794169645,-0.0872,222.244
,C6771,LMTOFAYSICBYRU-UHFFFAOYSA-N,O=C(CN1CCCC1)NCc1ccccc1,-2.23662003,1.7274,218.295
,C1385,LMWQQUMMGGIGJQ-UHFFFAOYSA-N,CN(c1ccccc1)C(=O)C,-0.94999999,1.6693,149.19
,C6823,LMYNSXURIAOYIR-UHFFFAOYSA-N,Nc1oc2c(n1)c(Cl)ccc2,-2.193382294,2.6446,168.58
,C3618,LMYRWZFENFIFIT-UHFFFAOYSA-N,CCCN(C(C(=O)Nc1c(C)cccc1C)CC)CC.Cl,-4.419833604,4.6274,312.878
,C2606,LMZQPVYGDQEUAO-UHFFFAOYSA-N,c1ccc2c(c1)CCC1N2CCN(C1)CCc1cccc2c1cccc2.Cl,-5.652232588,5.3242,378.938
,C1158,LNAOLPBKJQWTOC-UHFFFAOYSA-N,Cc1ccc(cc1)S(=O)(=O)N,-1.74,2.4235,171.217
,C9702,LNEPOXFFQSENCJ-UHFFFAOYSA-N,N/C(=N\C1CCCCC1)/N=C(N)N.Cl,0.658136339,2.8101,219.715
,C4857,LNIMUDTVDWATDY-UHFFFAOYSA-N,CCCCOc1ccc(cc1)C(C(=O)NO)CC,-3.497147432,3.2554,251.321
,C350,LNJDCWMEXDPRAY-UHFFFAOYSA-N,Fc1ccc(cc1)C(=O)CCCN1CCC(CC1)(O)c1ccc(cc1)Cl,-4.4299998,4.3635,375.864
,C5696,LNMAXZZQNSPQSR-UHFFFAOYSA-N,Clc1cccc(c1)N1CCN(CC1)CC1CN=C(O1)N,-2.912838157,1.3143,294.78
,C5271,LNMLHGDTVHDNQV-UHFFFAOYSA-N,OC(=O)C(=O)O.CCCCOc1c(OC)cccc1C(=O)NCCN(C)C,-3.186876122,1.712,384.424
,C6281,LNMOMAPHKHLJLB-UHFFFAOYSA-N,ONC1=c2ccccc2=NC1=O,-2.546210644,-1.2401,162.145
,C1998,LNNSWVQGTLENTF-UHFFFAOYSA-N,[NH2+](CC1CCCCC1)CC1CC2CCC1CC2C[NH2+]CC1CCCCC1.[Cl-].[Cl-],-7.171652322,-2.6658,433.541
,C7613,LNNWVNGFPYWNQE-GMIGKAJZSA-N,OC(C(Cl)Cl)NC(=O)Cc1ccc(cc1)F,-1.652711727,1.9974,266.096
,C3852,LNPKUUYTKHCNAJ-UHFFFAOYSA-L,CC[NH+](Cc1ccccc1)CC(COc1c2oc(cc2c(c2c1occc2=O)O)C)O.[Cl-],-4.204803232,-0.5981,459.919
,C6690,LNTHITQWFMADLM-UHFFFAOYSA-N,CN1CC[C@@]23[C@@H]4[C@H]1Cc1c3c(O[C@H]2CCC4)c(cc1)O,-2.27973095,2.3892,271.354
,C3763,LNTLWEUAGAFRJR-UHFFFAOYSA-N,c1ccc(cc1)CC1C[N+]2(COC[N+]34CCC(CC3)C(C4)Cc3ccccc3)CCC1CC2.[Br-].[Br-],-4.277671518,-0.9578,606.475
,C1341,LNTWEXZEWDVLCB-UHFFFAOYSA-N,OC(=O)c1cc(O)c(c(c1)O)O,-1.16,0.5016,170.12
,C1153,LNVQBBHYPGFSMX-UHFFFAOYSA-N,CSc1ncc2c(n1)nccn2,-1.76,1.1417,178.214
,C4156,LNVWRBNPXCUYJI-UHFFFAOYSA-N,Clc1ccc(cc1)C(c1ccccc1)OCCN1CCOCC1.Cl,-3.999172994,4.5181,368.297
,C2296,LODDFDHPSIYCTK-UHFFFAOYSA-N,c1ccc(cc1)Nc1c2ccccc2nc2c1cccc2,-6.225076385,5.2046,270.328
,C8997,LODGIKWNLDQZBM-LBPRGKRZSA-N,Cc1[nH]nc(c1N)C,-0.214671959,1.1899,111.145
,C6969,LOEQGPPJCCUXEJ-UHFFFAOYSA-N,OCc1c(C)cc(cc1C)C,-2.108544758,2.1041,150.218
,C3981,LOIRYAMMDZIGOO-UHFFFAOYSA-N,COc1ccc2c(c1O)c1c3OCOc3cc3c1[C@H](C2)N(C)CC3,-4.118618872,2.8195,325.358
,C2241,LOIYMIARKYCTBW-OWOJBTEDSA-N,CS(=O)(=O)O.CCN(CCNc1ccc(c2c1c(=O)c1c(s2)cccc1)CO)CC,-6.372397977,4.3185,452.587
,C3396,LOKBBQTULLXLQG-UHFFFAOYSA-N,CCCCCCSCCCCCCN1CCSC1.Cl,-4.634119043,5.6065,326.004
,C1083,LOKRZPSRQFVRBE-UHFFFAOYSA-N,OC(=O)/C=C/c1c[nH]cn1,-1.96,0.5075,138.124
,C6174,LOMFXRJCLQQSJH-UHFFFAOYSA-N,CC(CCC(COC(=O)N)(COC(=O)N)C)C,-2.6126023,3.0201,246.303
,C4339,LOMMDWBTANPFEJ-UHFFFAOYSA-N,CCCCOc1ccc(cc1Br)CC(=O)NO,-3.850838871,3.0668,302.164
,C8343,LONJSZKHAGAXPS-UHFFFAOYSA-N,OCC1COC(O1)(C)CCl,-1.039834016,0.3491,166.603
,C395,LOPUUBCBNOEBQV-UHFFFAOYSA-L,Nc1cccc2c1cc1ccccc1n2,-4.2199998,3.5514,194.232
,C5650,LORFBSZZGKKTAK-UHFFFAOYSA-N,ClCCN(C(=O)NC1CSCSC1)N=O,-2.944266981,2.1152,269.772
,C8687,LOSWWGJGSSQDKH-UHFFFAOYSA-N,O=CNc1ccccc1OCC(=O)[O-].O=CNc1ccccc1OCC(=O)[O-].[Ca+2],-0.689355493,0.185,428.406
,C6113,LOUPRKONTZGTKE-ITHTXLDVSA-N,CCCC(COC(=O)N)(COC(=O)NCC)C,-2.653489446,2.7254,246.303
,C9541,LOUPRKONTZGTKE-LHHVKLHASA-N,CCOCC(CO)O,0.481384838,-0.6239,120.147
,C790,LOVXREQUMZKFCM-UHFFFAOYSA-N,C=C[C@@H]1CN2CC[C@H]1C[C@@H]2[C@H](c1ccnc2c1cc(OC)cc2)O,-2.76,3.1111,324.417
,C1695,LOWOBAAJJNVUPR-UHFFFAOYSA-N,C=C[C@H]1CN2CC[C@H]1C[C@@H]2[C@H](c1ccnc2c1cc(OC)cc2)O	,-2.81 ,3.1111,324.417
,C7706,LOWQSAJOHJTFNH-UHFFFAOYSA-N,CC(Cc1ccc2c(c1)OCO2)NCC(c1ccc(c(c1)O)O)O.Cl,-1.596692732,3.2736,367.824
,C3419,LOXCOAXRHYDLOW-UHFFFAOYSA-N,ClCCN(CCOc1ccccc1OC)CCOc1ccccc1C.Cl,-4.609875467,4.8042,400.339
,C7666,LOYFUELOTCGIOH-UHFFFAOYSA-N,NCC(CSc1ccc(c(c1)Cl)Cl)O,-1.616334305,3.1054,252.161
,C4599,LOYXLMNYVHOJJJ-UHFFFAOYSA-N,CCC(=O)C(c1ccccc1)(c1ccccc1)CC(N1CCOCC1)C,-3.665785639,4.0005,351.482
,C8528,LPACBRAWRCXZGB-UHFFFAOYSA-N,Clc1ccc2c(c1)n(C(=O)C)c(=O)o2,-0.87373128,1.908,211.602
,C9571,LPAGFVYQRIESJQ-UHFFFAOYSA-N,Cl[As](c1ccc(c(c1)N)O)Cl.Cl,0.537003403,2.5304,290.406
,C3773,LPDBFJGKSBYQRE-UHFFFAOYSA-N,O=c1c(C)c(oc2c1cccc2)c1ccccc1,-4.271661507,3.7684,236.265
,C1366,LPEPZBJOKDYZAD-UHFFFAOYSA-N,c1ccc2c(c1)NCC2,-1.04,1.7926,119.164
,C3249,LPFJBUTXCFPAMS-UHFFFAOYSA-N,CCN(CCOc1ccc(cc1C(=O)Nc1ccccc1)Br)CC,-4.805768403,4.495,391.302
,C365,LPGDEHBASRKTDG-UHFFFAOYSA-N,OC(=O)c1ccccc1Nc1cccc(c1)C(F)(F)F,-4.3600001,4.2202,281.23
,C7010,LPGWZGMPDKDHEP-HLTPFJCJSA-N,CN1C2CCC1CN(C2)C(=O)c1ccncc1,-2.083140388,0.876,231.294
,C7266,LPIQUOYDBNQMRZ-UHFFFAOYSA-N,O=C1c2ccccc2N(C1=O)C(=O)C,-1.917016782,0.8274,189.167
,C1883,LPJNJBLMADVVOB-RMKNXTFCSA-N,CC[C@@]12CN3CCc4c([C@@](C[C@@H]([C@H]2O1)C3)(C(=O)OC)c1cc2c(cc1OC)N([C@@H]1[C@@]32CCN2[C@H]3[C@@](CC)(C=CC2)[C@H]([C@]1(O)C(=O)OC)OC(=O)C)C)[nH]c1c4cccc1,-8.029412242,3.9481,808.958
,C1033,LPJSRZKKOQXIBO-UHFFFAOYSA-L,C1CC=CC1,-2.0999999,1.7265,68.117
,C5123,LPKNOKRDTBOPAZ-UHFFFAOYSA-N,CCCCOc1ccc(cc1)/C=C/C(=O)NO,-3.296043588,2.775,235.279
,C9396,LPLBKXARLUPNDA-UHFFFAOYSA-N,CC[N+](CCCCCCC[N+](CC)(CC)CC)(CC)CC.[Br-].[Br-],0.336880721,-1.3021,460.374
,C6732,LPLVUJXQOOQHMX-QWBHMCJMSA-N,CCC(c1ccccc1)(C(=O)N)CCN1CCOCC1,-2.256815182,2.1802,276.374
,C7153,LPMGBZUUAYQFCO-UHFFFAOYSA-L,COc1cc(Cc2cnc(nc2N)N)cc(c1C(=O)N)OC,-1.99632442,2.2106,303.316
,C1991,LPMXVESGRSUGHW-HBYQJFLCSA-N,O[C@@H]1[C@@H](O[C@@H]2O[C@H](C(=O)O)[C@H]([C@@H]([C@H]2O)O)O)[C@H](O[C@@H]([C@H]1O)C(=O)O)O[C@H]1CC[C@]2([C@H](C1(C)C)CC[C@@]1([C@@H]2C(=O)C=C2[C@@]1(C)CC[C@@]1([C@H]2C[C@](C)(CC1)C(=O)O)C)C)C,-7.191257284,2.2456,822.932
,C9537,LPNBBFKOUUSUDB-UHFFFAOYSA-N,C[N+](CCCC[N+](C)(C)C)(C)C.[Br-].[Br-],0.476071519,-4.813,334.135
,C7482,LPQDBWXROSWZMP-UHFFFAOYSA-N,OC[C@@]12[C@H](O)C[C@@H](C[C@@]2(O)CC[C@@H]2[C@@H]1[C@H](O)C[C@]1([C@]2(O)CC[C@@H]1C1=CC(=O)OC1)C)O[C@@H]1O[C@@H](C)[C@@H]([C@H]([C@H]1O)O)O,-1.752382101,-1.515,584.652
,C852,LPRLDRXGWKXRMQ-UHFFFAOYSA-N,OC(=O)c1ccc(cc1)C,-2.5999999,1.6932,136.148
,C5519,LPSKDVINWQNWFE-UHFFFAOYSA-M,O=C(Nc1ccccc1Cl)Nc1ncco1,-3.027620181,3.118,237.642
,C4783,LPWNZMIBFHMYMX-MONHGIHASA-N,CN1CCC(CC1)OC(c1ccccc1)c1ccccc1.Cl,-3.554798045,4.6267,317.853
,C7245,LQAVWYMTUMSFBE-UHFFFAOYSA-N,CCC[N+](CCC)(CCC)CCC.[OH-],-1.926269846,3.2664,203.365
,C2700,LQBRFFKRJLTQIJ-UHFFFAOYSA-N,OCCN1CCN(CC1)CC/C=C/1\c2ccccc2Sc2c1cc(Cl)cc2.Cl.Cl,-5.50540759,5.7161,473.887
,C1542,LQCLVBQBTUVCEQ-QTFUVMRISA-N,OCCCC=C,-0.15000001,0.9449,86.1323
,C2081,LQKWPGAPADIOSS-UHFFFAOYSA-N,CCCCCC1=CC=C(C2C1OC(C)(C)C1C2C=C(C=C1)C)O,-6.865728364,5.4907,314.462
,C2272,LQLQDKBJAIILIQ-UHFFFAOYSA-N,CO[C@H]1C[C@@H](O[C@H]([C@@H]1OC(=O)C)C)O[C@H]1[C@H](C)[C@@H](O[C@@H]2O[C@H](C)C[C@@H]([C@H]2OC(=O)C)N(C)C)[C@@H](C)C[C@]2(OC2)C(=O)[C@@H]([C@H]([C@H]([C@H](OC(=O)[C@@H]1C)C)C)OC(=O)C)C,-6.292460467,3.6209,813.968
,C3297,LQNUZADURLCDLV-UHFFFAOYSA-N,CC(COC(=O)c1ccc(cc1)C(=O)OCC(C)C)C,-4.741468743,3.3122,278.343
,C2726,LQPZPKOXKQFSPK-UHFFFAOYSA-N,CCCCOC(=O)c1ccc(cc1)C(=O)OCCCC,-5.466864484,3.6004,278.343
,C1140,LQSWCSYIDIBGRR-UHFFFAOYSA-N,[O-][N+](=O)c1ccccc1,-1.8,2.118,123.109
,C7108,LQUVLNWIUORBDJ-UHFFFAOYSA-N,CN1C(C)CCC1c1c[nH]c2c1cccc2,-2.032193413,3.261,214.306
,C9312,LQWKXWQXAGWDHM-UHFFFAOYSA-M,COC(=O)C1=CCCN(C1)C.Cl,0.283327665,1.1612,191.655
,C2053,LQXHSCOPYJCOMD-UHFFFAOYSA-N,Clc1ccccc1CNCC1CCC(CC1)CNCC1CCCCC1.Cl.Cl,-6.992985145,7.7917,435.902
,C3756,LQZPJQKYAOYUJS-UHFFFAOYSA-N,[O-]C(=O)C(c1cccc2c1cccc2)Cc1ccco1.[Na+],-4.283720271,2.509,288.273
,C5255,LQZZUXJYWNFBMV-UHFFFAOYSA-N,OS(=O)(=O)O.Nc1ncnc2c1[nH]cn2.Nc1ncnc2c1[nH]cn2,-3.200751466,1.4606,368.332
,C2534,LRBLMOZKEZGJGQ-UHFFFAOYSA-N,CCN(CCN1c2ccccc2Sc2c1cccc2)CC.Cl,-5.769810675,5.4981,334.907
,C293,LRBRDKJDQNQZMK-BTJKTKAUSA-N,CCCCCCCCCCCCO,-4.6700001,3.8996,186.334
,C8652,LRCXRAABFLIVAI-UHFFFAOYSA-N,OCC1=CNC(=O)C(C1=O)(CC)CC,-0.732688896,0.6967,197.231
,C3819,LREQLEBVOXIEOM-UHFFFAOYSA-N,CN1CCN(CC1)C1Cc2ccccc2S(=O)c2c1cccc2.OC(=O)/C=C\C(=O)O,-4.232642954,3.1512,442.528
,C9857,LRGJRHZIDJQFCL-UHFFFAOYSA-M,NCC(c1cccc(c1)O)O,0.8147951,1.0846,153.178
,C9095,LRHPLDYGYMQRHN-UHFFFAOYSA-N,CC(CCCC(O)(C)C)N,-0.028884724,1.9751,145.243
,C9214,LRJOMUJRLNCICJ-VVCDUNCFSA-N,CC[N+](CC)(CC)CC.[OH-],0.159472595,1.706,147.258
,C1562,LRMYMYHAGWQOEO-UHFFFAOYSA-N,CCCCO,0,0.7788,74.1216
,C363,LRNCBUQKZLZXAV-UHFFFAOYSA-N,CC(=O)OCC(=O)[C@@]1(O)CC[C@@H]2[C@]1(C)C[C@@H](O)[C@H]1[C@H]2CCC2=CC(=O)C=C[C@]12C,-4.3699999,2.1284,402.481
,C4076,LRSASMSXMSNRBT-UHFFFAOYSA-N,CCCC1(CCN(C1)CCc1ccc(cc1)O)c1cccc(c1)O,-4.060700509,4.022,325.445
,C6782,LRUBEPGLRBIWIK-UHFFFAOYSA-N,CCOC(=O)C1=CNC2N(C1=O)C(C)CCC2,-2.227881237,1.0304,238.283
,C1252,LRUUNMYPIBZBQH-UHFFFAOYSA-N,Cc1c[nH]c(=O)nc1N,-1.46,0.2417,125.129
,C3191,LRWBJGZHGVHLEN-UHFFFAOYSA-M,CCOC(=O)c1c(C)ccc(c1OCCN(CC)CC)C(C)C,-4.876700416,4.0157,321.454
,C769,LRWSFOSWNAQHHW-UHFFFAOYSA-N,Clc1ccc(cc1Cl)n1oc(=O)n(c1=O)C,-2.8199999,1.436,261.062
,C5942,LRXXRIXDSAEIOR-UHFFFAOYSA-N,CC[N+](CCOc1ccccc1c1ccccc1)(CC)C.[I-],-2.75565002,1.2228,411.32
,C1772,LRZFEBJUJIQVDQ-UHFFFAOYSA-N,CCCCCCC(=O)OCCN1CCN(CC1)CCCN1c2ccccc2Sc2c1cc(cc2)C(F)(F)F,-9.794162679,6.7702,549.691
,C4166,LRZUYSRNNXQUAJ-UHFFFAOYSA-N,CC(Cc1ccccc1)NCc1ccccc1Cl,-3.992996787,4.4517,259.774
,C9903,LSAHUFPNCNCJLX-UHFFFAOYSA-N,COC(=O)CN(C)C,0.931265121,-0.279,117.146
,C4805,LSBDFXRDZJMBSC-UHFFFAOYSA-N,Brc1cccnc1OCCCCCN1CSCC1.Cl,-3.536145296,4.1394,367.733
,C8470,LSLYOANBFKQKPT-UHFFFAOYSA-N,NC1CCN(C1=O)c1ccc(cc1)F,-0.926541516,1.655,194.206
,C8756,LSPHULWDVZXLIL-LDWIPMOCSA-N,NC(=O)Cc1ccccc1,-0.572278879,1.4147,135.163
,C8537,LSQXNMXDFRRDSJ-UHFFFAOYSA-N,CC(Cc1ccc(cc1)O)NCC(c1cc(O)cc(c1)O)O,-0.865269932,2.4485,303.353
,C1264,LSQZJLSUYDQPKJ-NJBDSQKTSA-N,OC(=O)[C@H]1CC[C@@](C1(C)C)(C)C(=O)O,-1.42,1.5981,200.232
,C4295,LSSUMOWDTKZHHT-UHFFFAOYSA-N,COc1cc(C)ccc1C(C)C,-3.881046339,3.127,164.244
,C7117,LSTKNZAMFRGXCG-WLHGVMLRSA-N,O=C([C@@H](c1ccc(cc1)O)N)N[C@@H]1C(=O)N2[C@@H]1SC([C@@H]2C(=O)O)(C)C,-2.027099482,1.0528,365.404
,C6704,LSUJEOLKHABULX-UHFFFAOYSA-N,CCN(CCc1c[nH]c2c1cccc2)CC,-2.270654746,3.0522,216.322
,C3199,LSVAHJRFSZHOBF-UHFFFAOYSA-N,OC(=O)/C=C/C(=O)O.CN(CCCOC1(CCCCCC1)Cc1ccccc1)C,-4.8708357,4.0022,405.528
,C2745,LSXKDWGTSHCFPP-UHFFFAOYSA-N,N/C(=[NH+]/CCCC1CCCCC1)/CSSC/C(=[NH+]/CCCC1CCCCC1)/N.[Cl-].[Cl-],-5.445805907,-2.627,499.648
,C2187,LTBCQBSAWAZBDF-MLTZYSBQSA-N,c1ccc(cc1)C(c1ccccc1)(c1ccccc1)CCN1CCN(CC1)c1ncccn1,-6.51750281,5.0262,434.575
,C348,LTCPODHLAKFBTK-UHFFFAOYSA-N,CCCCCCCBr,-4.4299998,3.3517,179.098
,C7717,LTEQMZWBSYACLV-UHFFFAOYSA-N,O[C@H]1[C@@H](O[C@]([C@H]1O)(F)COS(=O)(=O)N)n1cnc2c1ncnc2N,-1.586864928,-0.0927,364.31
,C2744,LTGKKKITNWDUCD-UHFFFAOYSA-N,Cc1ccc2c(c1)c(C)cc(n2)SCCCCCN1CSCC1.Cl.Cl,-5.446606551,6.6622,419.475
,C213,LTHJBDQSFIGMAZ-UHFFFAOYSA-N,CCCCCCc1ccccc1,-5.21,3.8094,162.271
,C8914,LTHNHFOGQMKPOV-QMMMGPOBSA-N,CC(=O)Nc1ccc(cc1)[As](=O)(O)O,-0.354650176,-0.721,259.091
,C5701,LTILHNGHWBCFLL-UHFFFAOYSA-N,[NH3+]C12CCC(CC1)(CC2)c1ccccc1.[Cl-],-2.909291264,-0.7231,237.768
,C1168,LTIQDBREXPREBY-BTJKTKAUSA-N,CCCC[C@@H](CN)CC,-1.71,2.8618,129.243
,C4363,LTMHDMANZUZIPE-KUPWFOFFSA-N,Brc1cc(C)c(c(c1)C(=O)NC1CC1)O,-3.835739627,2.7462,270.122
,C2442,LTMHDMANZUZIPE-PUGKRICDSA-N,OC(=O)/C=C\C(=O)O.CCCNCC1COC2(O1)c1ccccc1C=Cc1c2cccc1,-5.93339994,3.8892,437.485
,C438,LTMHNWPUDSTBKD-UHFFFAOYSA-N,O=C1OCC(=C1)[C@H]1CC[C@@]2([C@]1(C)[C@H](O)C[C@H]1[C@H]2CC[C@@H]2[C@]1(C)CC[C@@H](C2)O[C@@H]1C[C@H](O)[C@H]([C@@H](O1)C)O[C@@H]1C[C@H](O)[C@H]([C@@H](O1)C)O[C@@H]1C[C@H](O)[C@H]([C@@H](O1)C)O)O,-4.0799999,2.2181,780.938
,C4040,LTNZEXKYNRNOGT-UHFFFAOYSA-N,O=C1OCC(=C1)[C@H]1CC[C@]2([C@]1(C)[C@H](O)C[C@H]1[C@H]2CC[C@H]2[C@]1(C)CC[C@@H](C2)O[C@H]1C[C@H](O)[C@@H]([C@H](O1)C)O[C@H]1C[C@H](O)[C@@H]([C@H](O1)C)O[C@H]1C[C@H](O)[C@@H]([C@H](O1)C)O)O,-4.081047651,2.2181,780.938
,C7710,LTWIBTYLSRDGHP-HCURTGQUSA-N,CCOC=C(C(=O)OCC)C(=O)OCC,-1.592746931,1.033,216.231
,C7125,LTWLHRVVHNBGBR-UHFFFAOYSA-N,Nc1cc(C)[n+](c2c1cccc2)CCCCCCCCCC[n+]1c(C)cc(c2c1cccc2)N.[Cl-].[Cl-],-2.023316673,1.3406,527.571
,C3188,LTWLLPCABGILCV-UHFFFAOYSA-N,Clc1ccc(cc1)/C=N/N/C(=N/N=C/c1ccc(cc1)Cl)/N.Cl,-4.880558231,5.1589,370.664
,C4413,LUALIOATIOESLM-UHFFFAOYSA-N,OCCN1CCN(CC1)CCC(=O)N1c2ccccc2Sc2c1cccc2.Cl.Cl,-3.793083027,4.3607,456.429
,C6381,LUCYABSAYIDKJV-UHFFFAOYSA-N,Clc1ccc(nc1)OCCCCN1CSCC1.Cl,-2.49030829,3.6402,309.255
,C457,LUEYGEDBAGAETN-UHFFFAOYSA-N,N#Cc1ccc2c(c1)N(CCCN1CCC(CC1)O)c1c(S2)cccc1,-3.98,4.01068,365.492
,C6426,LUHUIAWMUOEPTR-UHFFFAOYSA-N,N#CSc1cccc(c1)C(=O)O,-2.457440999,1.95798,179.196
,C2403,LUKBTGVFHUVGRT-UHFFFAOYSA-N,CCCCCOc1ccc(cc1)C(=O)OCCCN1CCCCC1C,-6.01590874,4.6148,347.492
,C8533,LUKSBMJXPCFBKO-UHFFFAOYSA-N,CCCCSC(c1ccccn1)C(=O)N.Cl,-0.868499576,3.6436,260.783
,C5758,LULAYUGMBFYYEX-UHFFFAOYSA-N,COc1ccccc1N1CCN(CC1)CC(COc1ccccc1C(=O)C)O,-2.875599286,2.4626,384.469