Name,Compound ID,InChIKey,SMILES,logS,logP,MW
,C2752,PVIYWTLLWCNTQD-UHFFFAOYSA-N,CCCC[C@H]1C(=O)O[C@H](C)[C@@H](C(=O)O[C@H]([C@H]1OC(=O)CC(C)C)C)NC(=O)c1cccc(c1O)NC=O,-5.439795099,3.8,520.572
,C4595,PVMRHHYSMYVGQV-UHFFFAOYSA-N,CCOC(=O)C1=C(C)NC(=C(C1c1cccc(c1)[N+](=O)[O-])C(=O)OC)C,-3.669014012,3.4177,360.361
,C3885,PVNIIMVLHYAWGP-UHFFFAOYSA-N,C1CCC(OC1)CNCC1CCC(CC1)CNCC1CCCCO1.Cl.Cl,-4.184566898,5.496,411.45
,C5581,PVNIQBQSYATKKL-UHFFFAOYSA-N,CNCCC12CC3CC(C2)CC(C1)C3.Cl,-2.988422921,4.0052,229.789
,C1414,PVNRNJYIJJGSRB-UHFFFAOYSA-N,OC(=O)c1cccnc1,-0.83999997,0.7798,123.109
,C2793,PVQGHYHZNQUJTL-UHFFFAOYSA-M,CCCCCCCCCCCCCCCC(=O)OC(COC(=O)CCCCCCCCCCCCCCC)COC(=O)CCCCCCCCCCCCCCC,-5.373538065,16.4285,807.32
,C5619,PVRDHKBVCDWVPD-UHFFFAOYSA-N,NNC(Cc1ccc(cc1)C(C)C)C,-2.9659295,3.2955,192.301
,C3123,PVSWBRFYDVJIQQ-UHFFFAOYSA-N,COc1ccc2c(c1)CCCN2C=CC=C/C=[N+]/1\CCCc2c1ccc(c2)OC.[Cl-].O,-4.957968228,1.851,442.978
,C5761,PVTZHDYDAGYCAX-UHFFFAOYSA-N,CC(=O)OCCn1c2cc(C)c(cc2nc2c1nc(=O)[nH]c2=O)C,-2.873843401,0.8129,328.323
,C4423,PVVKNINYCJVIFZ-UHFFFAOYSA-N,CN(CCCC12CC3CC(C2)CC(C1)C3)C.Cl,-3.783994559,4.3466,257.843
,C1933,PVVOWFXFXMECMS-UHFFFAOYSA-N,Clc1ccc(cc1)C1CCc2c(N(C1)CCCN(C(C)C)C(C)C)cccc2,-7.567569831,6.4503,399.012
,C225,PVWOIHVRPOBWPI-UHFFFAOYSA-N,COc1cc(C)c2c(c1)n(CC)c1ncccc1c(=O)[nH]2,-5.1500001,2.7769,283.325
,C2779,PVXJBKOQPCPILX-UHFFFAOYSA-N,OS(=O)(=O)SCCNCCCCCCCCCCCc1ccccc1,-5.392480732,6.3373,387.6
,C974,PWATWSYOIIXYMA-UHFFFAOYSA-N,CCCI,-2.29,1.8314,169.992
,C7907,PWBADUKEIVQTGV-UHFFFAOYSA-N,OCC(COc1cccc(c1)OC)O,-1.450187765,0.4272,198.216
,C297,PWCXFVBAQLRQEN-UHFFFAOYSA-N,CCCCCc1ccccc1,-4.6399999,3.4193,148.245
,C1222,PWDDDZZOGAIYGD-UHFFFAOYSA-N,CSc1cnc2c(n1)cncn2,-1.55,1.1417,178.214
,C5436,PWDPVPDCURNLMO-UHFFFAOYSA-N,CCCCSc1ccc(cc1)CC(=O)NO,-3.077972571,3.0176,239.334
,C7436,PWFIXEFPEFAERD-UHFFFAOYSA-N,ClCCN1CC2CCC(C1)N2C(=O)CC,-1.787927496,1.1862,230.734
,C5236,PWGBOISWWGVGSX-JVFQMWRPSA-N,O=C(N(C)C)OCCCc1ccccc1,-3.215139362,2.3174,207.269
,C5678,PWGUBEJVBRMAQL-UHFFFAOYSA-N,COC(=O)NC1CCCc2c(C1)c(O)c(c(c2)OC)OC,-2.926246859,2.4037,295.331
,C3043,PWHUBFUUJPVEOV-UHFFFAOYSA-N,CCCCCCN1CC[C@@]23[C@H]([C@H]1Cc1c3cc(cc1)O)CCCC2.Cl,-5.053209717,5.7708,363.964
,C4669,PWKLWQJZGQYOAQ-UHFFFAOYSA-N,CCCC(COC(=O)N)(COC(=O)N(CC)CC)C,-3.626747355,3.0668,274.357
,C4486,PWNAWGHHNQQCAK-UHFFFAOYSA-N,O=Cc1ccccc1OCC(CN1CCN(CC1)c1ccc(c(c1)C)C)O.Cl.Cl,-3.734734906,4.2847,441.391
,C5424,PWNAWOCHVWERAR-UHFFFAOYSA-N,CCN1CCCC(C1)OC(=O)Nc1ccc(cc1)OC,-3.084758848,2.7389,278.347
,C2686,PWNYOZHESISOID-OCIYDRMTSA-N,O=C(N1c2ccccc2Sc2c1cccc2)CCNC(C)(C)C.Cl,-5.518413418,5.852,362.917
,C95,PWQNAUQOWNUXPM-UHFFFAOYSA-N,CCN(c1c(cc(cc1[N+](=O)[O-])C(F)(F)F)[N+](=O)[O-])Cc1c(F)cccc1Cl,-6.7800002,6.3872,421.731
,C7263,PWQRTIDMAHIZSV-UHFFFAOYSA-N,OCCOCCN1CC[C@@]23[C@H]([C@H]1Cc1c3cc(cc1)O)CCCC2.Cl,-1.918363344,3.1994,367.91
,C5453,PWRPUAKXMQAFCJ-UHFFFAOYSA-N,O=C(c1ccc(cc1)[N+](=O)[O-])Nc1ccncc1C,-3.065961405,3.1467,257.245
,C2636,PWWVAXIEGOYWEE-UHFFFAOYSA-N,CC(CCC=C(C)C)CCN1CCN(CC1)CC(=O)NN=Cc1ccc(o1)[N+](=O)[O-],-5.593375104,3.818,419.518
,C5235,PWWVAXIEGOYWEE-ZDUSSCGKSA-N,CN1CCN(CC1)C1=Nc2ccccc2Cc2c1cccc2,-3.215532966,2.2279,291.39
,C3784,PWXCLVASQNMYJV-UHFFFAOYSA-N,CN(C(CN1c2ccccc2Sc2c1cccc2)C)C,-4.259724895,4.3044,284.419
,C387,PWZUUYSISTUNDW-VAFBSOEGSA-N,CN([C@H](CN1c2ccccc2Sc2c1cccc2)C)C,-4.2600002,4.3044,284.419
,C7690,PWZUZQNZVZKCBI-UHFFFAOYSA-N,OC(=O)C(C1CCC=CC1)N,-1.604296045,1.4549,155.194
,C2056,PXAGFNRKXSYIHU-UHFFFAOYSA-N,C#C[C@]1(O)CC[C@@H]2[C@]1(C)CC[C@H]1[C@H]2CCc2c1ccc(c2)OC1CCCC1,-6.983895731,5.2284,364.52
,C8943,PXBFMLJZNCDSMP-UHFFFAOYSA-N,CCOC(=S)N,-0.314856252,0.9668,105.159
,C59,PXBIAYSAZBFYQQ-LXCLTORNSA-N,Clc1cccc(c1c1c(Cl)cccc1Cl)Cl,-7.3899999,5.9672,291.988
,C7419,PXBVEXGRHZFEOF-UHFFFAOYSA-N,NC(=O)c1ccccc1N,-1.804022736,1.6492,136.151
,C1764,PXDBZSCGSQSKST-UHFFFAOYSA-N,CCCCCCOc1ccc(c2c1cccc2)C(=N)[NH+](CCCCC)CCCCC.[Cl-],-9.974630214,3.4933,447.096
,C3643,PXDGUZYTZGUSLZ-UHFFFAOYSA-N,Clc1ccc2c(c1)C(=NC(C(=O)N2C)OC(=O)N(C)C)c1ccccc1,-4.393374946,2.6787,371.818
,C2503,PXECXIZFANFWIN-UHFFFAOYSA-N,CCOc1ccc(cc1)Cc1nc2c(n1CCN(CC)CC)ccc(c2)[N+](=O)[O-],-5.833086544,4.799,396.483
,C5803,PXGPLTODNUVGFL-YNNPMVKQSA-N,CCC(=O)N1CCN(CC1)CC=Cc1ccccc1,-2.848752578,2.1298,258.359
,C7900,PXLPCZJACKUXGP-UHFFFAOYSA-N,Clc1ccc(nc1)OCCN1CSCC1.Cl,-1.452495937,2.86,281.202
,C2974,PXLVRFQEBVNJOH-UHFFFAOYSA-N,CCCCC[C@@H](/C=C/[C@H]1[C@H](O)C[C@@H]([C@@H]1C/C=C\CCCC(=O)O)O)O,-5.13882308,3.0429,354.481
,C4332,PXMQKTKQGRJMFJ-UHFFFAOYSA-N,CCc1nc(N)nc(c1c1ccc(c(c1)Cl)Cl)N,-3.853016544,4.3396,283.156
,C3505,PXOZLYJMAQPPEV-UHFFFAOYSA-N,C=CCC1(C(=O)NC(=S)NC1=O)C1CCCC=C1,-4.53511342,2.0937,264.343
,C3221,PXQPEWDEAKTCGB-UHFFFAOYSA-N,COc1ccccc1N1CCN(CC1)CC(=O)C12CC3CC(C2)CC(C1)C3.Cl,-4.845504665,4.4076,404.973
,C6110,PXQWHXAYFGPLCD-UHFFFAOYSA-N,CCOc1c(OC)cccc1C(=O)OCC[NH+](CC)CC.[Cl-],-2.654637482,-1.8206,331.835
,C1096,PXSOHRWMIRDKMP-UHFFFAOYSA-N,O=c1[nH]c(=O)[nH]c(c1)C(=O)O,-1.9299999,-1.2386,156.096
,C6244,PXUVKPNONSFCNO-UHFFFAOYSA-N,NC(=O)c1cccc(c1O)c1ccccc1,-2.566932668,2.8584,213.232
,C8928,PXWINCSLFXUWBZ-VYIIXAMBSA-N,O=C1C(=C(N2CC2)C(=O)C=C1N1CC1)N1CC1,-0.334707354,-1.0058,231.251
,C1835,PXWUKZGIHQRDHL-UHFFFAOYSA-N,N#CC(C(C)C)(Cc1cccc2c1cccc2)CC[NH+](CC=C(C)C)CC=C(C)C.[Cl-],-8.531957912,2.75968,439.076
,C8869,PXXKIYPSXYFATG-UHFFFAOYSA-N,CO[C@H]1C=CC2=CCN3[C@]2(C1)C1=C(CC3)COC(=O)C1,-0.41798998,1.5272,273.327
,C1046,PXZAWHSJYIECNQ-UHFFFAOYSA-N,CCNc1nc(NC(C)C)nc(n1)OC,-2.0799999,1.2783,211.264
,C3115,PXZBONIIVQBUBP-UHFFFAOYSA-N,CCOC(=O)C1(CCN(CC1)CCCNc1ccccc1)c1ccccc1,-4.964087726,4.0964,366.497
,C4465,PYCJDIVWRGIZJB-UHFFFAOYSA-N,C1CN1P1(=NP(=NP(=N1)(N1CC1)N1CC1)(N1CC1)N1CC1)N1CC1,-3.754399482,-0.3336,387.301
,C7155,PYGSKMBEVAICCR-UHFFFAOYSA-N,CCC1(CC)COCOC1,-1.994654567,1.7971,144.211
,C2753,PYGXAGIECVVIOZ-UHFFFAOYSA-N,C(NCc1ccccc1)CCC12CC3CC(C2)CC(C1)C3.Cl,-5.436851443,5.9657,319.912
,C816,PYHRZPFZZDCOPH-UHFFFAOYSA-N,C=CCCC=C,-2.6800001,2.1386,82.1436
,C475,PYHXGXCGESYPCW-UHFFFAOYSA-N,CCCCOC(=O)CCCCCCCCC(=O)OCCCC,-3.9000001,4.7938,314.46
,C1920,PYIHTIJNCRKDBV-UHFFFAOYSA-L,OS(=O)(=O)O.CC(Cc1ccccc1)N.CC(Cc1ccccc1)N,-7.699550249,4.9812,368.491
,C653,PYLMCYQHBRSDND-SOFGYWHQSA-N,OC(=O)C(c1ccccc1)c1ccccc1,-3.22,2.9031,212.244
,C9591,PYLWMHQQBFSUBP-UHFFFAOYSA-N,C[N+](CCCCCC[N+](C)(C)C)(C)C.[Cl-].[Cl-],0.5633826,-4.0328,273.286
,C903,PYNUOAIJIQGACY-UHFFFAOYSA-N,CCC/C=C(/C=O)\CC,-2.46,2.3218,126.196
,C1139,PYSJLPAOBIGQPK-UHFFFAOYSA-N,Fc1ccccc1,-1.8,1.8257,96.1023
,C9924,PYSLAXNKITVDGO-NUEKZKHPSA-N,CCCN.Cl,1.019678414,1.8574,95.5712
,C6025,PYSOHOOUXFWCFF-UHFFFAOYSA-N,Nc1scc(n1)c1ccccc1,-2.698322386,2.9735,176.238
,C6015,PYTCKRXHAISOQN-UHFFFAOYSA-N,Oc1ccc2c(c1)[C@]13CCCC[C@H]3[C@@H](C2)[NH+](CC1)[O-],-2.705463678,3.1005,259.343
,C2661,PYTDDYLZYYKESK-UHFFFAOYSA-N,COc1ccc2c(c1CN1CCCCC1)oc1c(c2=O)cccc1,-5.558537514,3.8786,323.386
,C4247,PYTMYKVIJXPNBD-OQKDUQJOSA-N,CCCCOc1nc(OCCCC)cc(c1)C(=O)N(N)C,-3.92756007,3.0854,295.377
,C2308,PYVUMAGVCSQCBD-UHFFFAOYSA-N,CCCCCCCCCCSCCCCCN1CSCC1.Cl,-6.193029049,6.7768,368.084
,C2028,PYYFLHVYSVCZBS-UHFFFAOYSA-N,OC(=O)C(CC(=O)O)(CC(=O)O)O.CCN(CCOc1ccc(cc1)/C(=C(/c1ccccc1)\Cl)/c1ccccc1)CC,-7.074335271,5.3141,598.083
,C3236,PYZHTHZEHQHHEN-UHFFFAOYSA-N,CC(C1Nc2cc(Cl)c(cc2S(=O)(=O)N1)S(=O)(=O)N)c1ccccc1,-4.822341019,5.1497,401.888
,C2777,PZABEXWNZYLYEY-UHFFFAOYSA-N,CCCCCCOc1ccc(cc1)NC(=O)OCC[NH+]1CCCCC1.[Cl-],-5.396470211,1.9092,384.941
,C8,PZBIVIXQLIVFHJ-UHFFFAOYSA-N,Clc1ccc(c(c1)c1c(Cl)c(Cl)c(c(c1Cl)Cl)Cl)Cl,-8.9399996,7.9274,395.323
,C6790,PZBPKYOVPCNPJY-UHFFFAOYSA-N,CCN(CCOCCCOC(=O)c1ccc(cc1)N)CC,-2.220957149,2.7553,294.389
,C5865,PZCDSVSZCJTGDJ-UHFFFAOYSA-N,Clc1cccc(c1)OC(C(=O)O)(C)C,-2.800241859,2.582,214.646
,C5234,PZDARDIDPSRLMQ-UHFFFAOYSA-M,C=CCOC(c1ccc(cc1Cl)Cl)Cn1cncc1,-3.217745597,4.1338,297.18
,C5860,PZHBZYPUUCYOIA-UHFFFAOYSA-N,COc1cccc(c1)N1CCN(CC1)CC(COc1cccc(c1)C=O)O,-2.804552306,2.0725,370.442
,C8892,PZJWZGWBDMSONK-UHFFFAOYSA-N,CCCC[N+](CCCC)(CC)CC.[OH-],-0.382459314,3.2664,203.365
,C1858,PZMMWWLCCGJACT-UHFFFAOYSA-N,CN(c1ccc2c(c1)cccc2)C(=S)Oc1ccc2c(c1)cccc2,-8.313139462,5.7931,343.441
,C6124,PZMVOUYYNKPMSI-UHFFFAOYSA-N,CC(=O)OC(COC(=O)C)COCc1ccccc1,-2.649385419,1.698,266.29
,C6891,PZPPOCZWRGNKIR-PNVYSBBASA-N,CCCC(C(=O)NC(=O)N)CCC,-2.156164588,2.4889,186.251
,C8831,PZPZDEIASIKHPY-UHFFFAOYSA-N,CNCC(=O)c1ccc(c(c1)O)O,-0.46448588,0.8908,181.189
,C1731,PZRHRDRVRGEVNW-UHFFFAOYSA-N,OC[C@]12SS[C@]3(N(C1=O)[C@H]1Nc4c([C@]1(C3)[C@@]13C[C@]56N([C@H]3Nc3c1cccc3)C(=O)[C@](SS5)(N(C6=O)C)CO)cccc4)C(=O)N2C,-11.97802288,1.3616,696.84
,C4271,PZTCVADFMACKLU-UEPZRUIBSA-N,Nc1ccc(cc1C(=O)c1ccccc1)[N+](=O)[O-],-3.90422814,3.5124,242.23
,C4170,PZUKSYIIPYFJAB-UHFFFAOYSA-N,N#Cc1cc(c2ccncc2)c([nH]c1=O)C,-3.989285362,1.61698,211.219
,C4647,PZZHMLOHNYWKIK-UHFFFAOYSA-N,N[C@H](C(=O)O)CCCCNCNC(=O)C1=C(O)[C@@]2([C@H]([C@@H](C1=O)N(C)C)C[C@H]1C(=C(O)c3c([C@@]1(C)O)cccc3O)C2=O)O,-3.642704556,0.8713,602.633
,C3227,PZZRNAITVRJAKV-UHFFFAOYSA-N,Cc1cc(OCCCCCCN2CSCC2)nc2c1cccc2.Cl.Cl,-4.840073809,6.0306,403.409
,C8190,QADHLRWLCPCEKT-LOVVWNRFSA-N,OC(=O)C(c1ccccc1O)NCCNC(c1ccccc1O)C(=O)O,-1.198808962,2.0104,360.361
,C7819,QAFJMZFAQFGVJS-UHFFFAOYSA-N,Br/N=C/1\C=CC(=O)C=C1,-1.514648395,1.4324,186.006
,C3697,QAGGLICGAXHMIZ-BTJKTKAUSA-N,O[C@H]1CC[C@]2(C(=CC[C@@H]3[C@@H]2CC[C@]2([C@H]3CC[C@@H]2O)C)C1)C,-4.350126904,3.671,290.44
,C7304,QAGNKTWKZGOINN-UHFFFAOYSA-M,OCCNC(Cc1cccc(c1)C(F)(F)F)C,-1.883953099,2.6092,247.257
,C2494,QAHDLECDBKGHTA-UHFFFAOYSA-N,OC(=O)/C=C\C(=O)O.CCCCNCC1COC2(O1)c1ccccc1OCc1c2cccc1,-5.843581865,3.6879,455.5
,C4396,QAHFOPIILNICLA-UHFFFAOYSA-N,CCC1CCC(C21C(=O)[N-]C(=S)NC2=O)CC.[Na+],-3.806950751,1.7933,276.33
,C4630,QAHREYKOYSIQPH-UHFFFAOYSA-L,COc1cc2c(cc1OC)CC[NH+](C2Cc1ccccc1)C.[Br-],-3.649964411,0.6316,378.303
,C729,QAJQUUOBVOKLOD-UHFFFAOYSA-N,CN(C(=O)C(c1ccccc1)c1ccccc1)C,-2.98,2.9067,239.312
,C9114,QAKJEUIMEVJFTM-UHFFFAOYSA-N,[O-]C(=O)C.[O-]C(=O)C.[Co+2],0.000438928,-2.4876,177.021
,C6929,QAMAVRZEFVPISR-UHFFFAOYSA-N,OC(=O)CCC(=O)Nc1ccc(cc1)S(=O)(=O)c1ccc(cc1)N,-2.135674641,3.6399,348.374
,C9141,QAQQSUVDOHQMHB-UHFFFAOYSA-N,OCC(COc1ccc(cc1)O)O,0.052794953,0.1242,184.189
,C2335,QARPSPWVAKPFSK-YGICXTQQSA-N,C1CCC(CC1)[NH2+]CC12CCC(CC1)(CC2)C[NH2+]C1CCCCC1.[Cl-].[Cl-],-6.135225841,-2.8728,405.488
,C2292,QARRCHMPOZWNED-UHFFFAOYSA-N,CCCCCCOc1ccc(cc1)C(=O)OCCCN1CCCCC1C,-6.233857081,5.0049,361.518
,C3334,QARVLSVVCXYDNA-UHFFFAOYSA-N,Oc1ccc2c(c1)[C@]13CCCC[C@H]3[C@@H](C2)N(CC1)CCOc1ccccc1.Cl,-4.692994631,5.2695,399.954
,C8353,QAXAHXNXXIWQIZ-UHFFFAOYSA-N,CC1CCCC(N1)(C)C,-1.029045979,2.2558,127.227
,C871,QAXCWBIVFCEYGG-UHFFFAOYSA-N,Brc1ccccc1,-2.55,2.4491,157.008
,C8836,QAXVLPXRIUCUMC-UHFFFAOYSA-N,CCN([N+](=O)[O-])CC,-0.459810308,1.0431,118.134
,C7926,QAXZLVLNSWBGRJ-UHFFFAOYSA-L,Cn1cnc(=O)c2c1cccc2,-1.434482122,0.9335,160.173
,C1923,QAYGLHSZAFDOJZ-UHFFFAOYSA-N,CCCCCCCOc1ccccc1NC(=O)OCC[N+]1(CCCCCC)CCCCC1.[Br-],-7.639509547,4.2011,527.578
,C9412,QAYICIQNSGETAS-UHFFFAOYSA-N,CC[N+](CCCCCC[N+](CC)(CC)CC)(CC)CC.[Br-].[Br-],0.350318633,-1.6922,446.347
,C4104,QAZKXHSIKKNOHH-UHFFFAOYSA-N,CN1CCN(CC1)c1nc(c(o1)c1ccccc1)c1ccccc1,-4.041947778,3.7633,319.4
,C1025,QBBKKFZGCDJDQK-SSDOTTSWSA-N,CN1CN(C)CSC1=S,-2.1300001,0.6725,162.276
,C1915,QBCQXNDNMOHQIU-UHFFFAOYSA-N,Clc1ccc2c(c1)N(CCCN1CCC(CC1)(C(=O)N)N1CCCCC1)c1ccccc1CC2,-7.729425753,5.4137,481.073
,C1239,QBEFIFWEOSUTKV-UHFFFAOYSA-N,CC[C@@H]1CCCCN1,-1.5,1.8673,113.201
,C8726,QBELEDRHMPMKHP-UHFFFAOYSA-N,CCC1C(=O)N(C)C(=O)N(C1=O)C,-0.614970337,-0.0612,184.192
,C1781,QBILRDAMJUPXCX-AGAUEGNUSA-N,CCCCCC(C(c1cc(O)c2c(c1)OC(C1=C2CC(C)CC1)(C)C)C)C,-9.471968448,7.4567,370.568
,C662,QBISHGLLUNDCHP-UHFFFAOYSA-N,Clc1ccccc1Br,-3.1900001,3.1025,191.453
,C5043,QBKCGCOHIUEGDX-UHFFFAOYSA-N,O=C[C@@]12CC[C@@H](C[C@@]2(O)CC[C@@H]2[C@@H]1CC[C@]1([C@]2(O)CC[C@@H]1C1=CC(=O)OC1)C)O[C@H]1C[C@H](O)[C@@H]([C@H](O1)C)O,-3.352402708,1.7792,534.638
,C2363,QBLFYKYECNTDCF-UHFFFAOYSA-N,CCC(C(c1ccccc1)(c1ccccc1)CCN1CCOCC1)OC(=O)c1ccc(cc1)N.Cl,-6.091513465,6.2339,495.053
,C8520,QBOSERJVPQFZAQ-UHFFFAOYSA-L,CCOC(=O)N1CCN(CC1)C(C)C.Cl,-0.880117068,1.8467,236.739
,C5359,QBPFLULOKWLNNW-UHFFFAOYSA-N,CN(CCC(c1cccc2c1cccc2)(C(=O)N)C)C,-3.128772097,3.2348,270.369
,C9498,QBQMXWZTRRWPGK-UHFFFAOYSA-N,CC[N+](CCCC[N+](CC)(CC)C)(CC)C.[Br-].[Br-],0.408659325,-3.2526,390.241
,C1675,QBSJMKIUCUGGNG-UHFFFAOYSA-N,Oc1cccc2c1C(=O)c1c(C2=O)cccc1O	,-5.19 ,1.8732,240.211
,C6021,QBYBMXVKAQVJHV-UHFFFAOYSA-N,COc1cc(Cc2cnc(nc2N)N)cc(c1N(C)C)OC,-2.702081942,2.4774,303.36
,C760,QBYJBZPUGVGKQQ-WBJAICTJSA-N,CNC(=O)Oc1ccccc1C(C)C,-2.8599999,2.9191,193.242
,C4776,QCCCFHDTBTUDEA-UHFFFAOYSA-M,C[NH+](CCOC(c1cccc(c1)Cl)c1ccccc1)C.[Cl-],-3.560288813,-0.4055,326.261
,C63,QCCDLTOVEPVEJK-UHFFFAOYSA-N,ClC1=C(Cl)[C@@]2(C([C@@]1(Cl)[C@H]1[C@@H]2[C@H]2C[C@@H]1C=C2)(Cl)Cl)Cl,-7.3299999,5.2702,364.91
,C4089,QCDFBFJGMNKBDO-UHFFFAOYSA-N,CCCN(S(=O)(=O)c1ccc(cc1)C(=O)[O-])CCC.[Na+],-4.054649796,1.9416,307.341
,C7957,QCDMSCUTQSXHCU-UHFFFAOYSA-N,CC(=O)Cc1ccccc1,-1.410593557,1.8181,134.175
,C4091,QCDWFXQBSFUVSP-UHFFFAOYSA-N,Ic1cc(Cl)c2c(c1O)nccc2,-4.052681987,3.1984,305.5
,C9406,QCDYQQDYXPDABM-UHFFFAOYSA-N,NCC1(N)CCCCC1,0.346892508,2.0073,128.215
,C1450,QCFFJPDKTFNUHI-UHFFFAOYSA-N,OCCOc1ccccc1,-0.70999998,1.0577,138.164
,C8322,QCFURRURLJLBAD-UHFFFAOYSA-L,Oc1cc(O)cc(c1)O,-1.075447104,0.8034,126.11
,C7312,QCGRMMZPZDAITA-UHFFFAOYSA-N,CN(c1c(C)n(c2ccccc2)c(=O)n(c1=O)C)C,-1.877259131,0.9106,259.304
,C9220,QCHFTSOMWOSFHM-WPRPVWTQSA-N,CC[N+](CCCCCc1ccc(cc1)[N+](CC)(CC)CC)(CC)CC.[I-].[I-],0.173371202,-0.3491,602.418
,C9024,QCHSEDTUUKDTIG-UHFFFAOYSA-L,OCCCn1cnc2c1c(=O)n(C)c(=O)n2C,-0.155091823,-1.1839,238.243
,C8569,QCIARNIKNKKHFH-UHFFFAOYSA-N,CC[C@@H]1C(=O)OC[C@@H]1Cc1cncn1C,-0.822647555,1.1618,208.257
,C5464,QCKHVNQHBOGZER-UHFFFAOYSA-N,[O-]C(=O)C1N=C(c2ccccc2)c2c(NC1=O)ccc(c2)Cl.[K+].[K+].[OH-],-3.06141105,0.6448,408.919
,C7494,QCOXCILKVHKOGO-UHFFFAOYSA-N,ClCCn1cnc2c1c(=O)n(C)c(=O)n2C,-1.740564955,-0.3275,242.662
,C84,QCQPGRMMDFIQMB-HGERSSIQSA-N,Brc1cc(Br)c(cc1Br)Br,-6.98,4.7366,393.696
,C7405,QCRFMSUKWRQZEM-UHFFFAOYSA-N,[O-][N+](=O)NCCN[N+](=O)[O-],-1.814635467,0.3772,150.093
,C1044,QCTMYNGDIBTNSK-XEAAVONHSA-N,N#C[C@H]1C[C@H]2C[C@@H]1/C(=N\OC(=O)NC)/[C@@H]2Cl,-2.0799999,1.87628,241.674
,C1401,QCUPYFTWJOZAOB-HYXAFXHYSA-N,OC1CCCCCC1,-0.88,1.7015,114.185
,C2428,QCXZULAOFRNEFL-UHFFFAOYSA-M,OC[C@H]1O[C@@H](O[C@H]2CC[C@]3(C(=CC[C@@H]4[C@@H]3CC[C@]3([C@H]4C[C@H]4[C@@H]3[C@H](C)[C@]3(O4)CC[C@H](CN3)C)C)C2)C)[C@@H]([C@H]([C@H]1O)O[C@@H]1O[C@H](CO)[C@H]([C@@H]([C@H]1O)O)O)O[C@@H]1O[C@@H](C)[C@@H]([C@H]([C@H]1O)O)O,-5.962995687,0.1159,884.058
,C6888,QCYKVLBHGCMWNC-RRAJOLSVSA-N,CC/C(=C/C)/C(=O)NC(=O)N,-2.157010427,1.6288,156.182
,C2873,QCZZSANNLWPGEA-UHFFFAOYSA-N,O=C(c1cccc(c1O)c1ccccc1)Nc1ccc(cc1)C(=O)[O-].[Na+],-5.260591166,2.748,355.319
,C6509,QDADJNJFPRLXTP-UHFFFAOYSA-M,O=C(C[NH+]1CCOCC1)N/N=C/c1ccc(o1)[N+](=O)[O-].[Cl-],-2.403030582,-1.9597,318.714
,C5103,QDEJGEWHMAYDSI-UHFFFAOYSA-N,CC(=O)c1ccc(cc1)c1ccccc1,-3.310355279,3.5562,196.244
,C2828,QDFKKJYEIFBEFC-UHFFFAOYSA-N,CCCCCc1cc[n+](cc1)C(c1ccccc1)c1ccccc1.[Br-],-5.31254567,2.3485,396.363
,C2833,QDFZZUZHYOGLPL-UHFFFAOYSA-N,[O-][N+](=O)c1cc([N+](=O)[O-])c(c(c1)[N+](=O)[O-])O.CCCCOc1ccc(cc1)OCC(=O)N(c1ccc(cc1)OC)CCN(C)C,-5.304925983,6.5341,629.615
,C824,QDHFDXDMKYJPSC-UHFFFAOYSA-N,Fc1cccc(c1)Br,-2.6700001,2.5882,174.998
,C3702,QDMXVLGVKMTTIT-UHFFFAOYSA-N,Cc1cccc2c1c(N)c1c(n2)cccc1,-4.348732582,3.8598,208.258
,C8127,QDOVDSFIOUZBQT-UHFFFAOYSA-N,CCNC(=O)Cc1ccccc1,-1.246256197,1.7561,163.216
,C6306,QDUUEDMQDSCAOJ-GMIVGMFBSA-N,Clc1ccc2c(c1)oc(n2)N,-2.532200851,2.6446,168.58
,C7641,QDWJJTJNXAKQKD-UHFFFAOYSA-N,OCCOc1ccccc1C(=O)N(CC)CC,-1.630221116,1.5397,237.295
,C8742,QDYTUZCWBJRHKK-UHFFFAOYSA-N,CCC/C=C/COCn1ccn(/c/1=C/[NH+]=O)C.[Cl-],-0.590663417,-2.9729,273.759
,C2446,QEEBRPGZBVVINN-BMPKRDENSA-N,OC(c1ccccc1)(C1CCCCC1)CCN1CCCCC1.Cl,-5.923847702,5.0704,337.927
,C9858,QEFCQWMDQYETNH-FCVRUTMISA-N,OCc1cnc[nH]1,0.815166874,-0.098,98.1032
,C2516,QEFDFGVDVZTFAK-GGXMVOPNSA-N,O[C@H]1CC[C@]2([C@@H](C1)CC[C@@H]1[C@@H]2CC[C@]2([C@]1(O)CC[C@@H]2c1ccc(=O)oc1)C)C,-5.801144255,4.2419,386.524
,C6821,QEHKQNYBBLCFIJ-UHFFFAOYSA-N,[O-][N+](=O)c1ccc(o1)/C=N/NC(=O)C[NH2+]C.[O-]C(=O)C,-2.194285287,-1.4986,286.241
,C1742,QELSIJXWEROXOE-IGUOPLJTSA-N,CCCCCCCCCCCCCCCCCC(=O)OCC(=O)OC[C@H]([C@@H](c1ccc(cc1)[N+](=O)[O-])O)NC(=O)C(Cl)Cl,-11.31996592,8.1787,647.627
,C8243,QELSKZZBTMNZEB-UHFFFAOYSA-N,Nc1[nH]ncc1c1ccccc1,-1.13746325,2.2401,159.188
,C8825,QELUYTUMUWHWMC-UHFFFAOYSA-N,O=[NH+]/C=c/1\ccccn1COC[n+]1ccc(cc1)C(=O)N.[Cl-].[Cl-],-0.470768513,-6.9193,359.208
,C6265,QEMIWXBPPYGOMV-UHFFFAOYSA-N,CCCOC(=O)c1ccc(cc1)O,-2.556792012,1.959,180.2
,C5162,QENGPZGAWFQWCZ-UHFFFAOYSA-N,O=C1CC(=NN1c1ccccc1)C,-3.270429853,1.2998,174.199
,C8852,QENJZWZWAWWESF-UHFFFAOYSA-N,CCCCN1CCC(CC1)(O)c1ccco1.Cl,-0.441467811,3.103,259.772
,C927,QEORVDCGZONWCJ-QURGRASLSA-N,Cc1cscc1,-2.3900001,2.0565,98.1661
,C5387,QEPHYDVEKYUURE-UHFFFAOYSA-N,Cc1cc(C(=O)O)c(cc1C)C,-3.108173736,2.31,164.201
,C2384,QEPSIRAPSOKGGM-UHFFFAOYSA-N,N#CCCN(c1ccc(cc1)/N=N/c1ccc(cc1C#N)[N+](=O)[O-])CC,-6.053485045,5.14506,348.359
,C5605,QEQAPQHGLVGWMO-UHFFFAOYSA-N,CNCC=C(c1ccccc1)c1ccc(cc1)F.Cl,-2.972388937,4.6697,277.764
,C4714,QERYCTSHXKAMIS-UHFFFAOYSA-N,O=C(c1ccc(cc1)[N+](=O)[O-])Nc1ccccc1C,-3.595769143,3.7517,256.257
,C5089,QERZBQVBUHVAFS-UHFFFAOYSA-N,ICC(=O)Nc1ccc(c(c1)O)C(=O)O,-3.321908311,1.5369,321.069
,C8145,QESYWDIVVXFNFE-AQFVONAPSA-N,OC(=O)c1cccs1,-1.232640402,1.4463,128.149
,C5364,QETMIYRHIXHGJK-MHTZHOPKSA-N,CCC(COC(=O)C)(COC(=O)C)CC,-3.125495302,1.919,216.274
,C2670,QEVHRUUCFGRFIF-MDEJGZGSSA-N,Oc1ccc2c(c1)[C@]13CCCC[C@H]3[C@@H](C2)N(CC1)CCCc1ccccc1.Br,-5.542051654,5.9794,442.432
,C2132,QEWYKACRFQMRMB-UHFFFAOYSA-N,CCN(CC/N=c/1\cc2c(cc1Nc1ccc(cc1)Cl)nc1c(n2c2ccc(cc2)Cl)cccc1)CC,-6.712689826,7.5446,530.491
,C4252,QEZPUQMNWKYVDS-UHFFFAOYSA-N,COc1ccc2c(c1)[nH]c1c2CCN2[C@@H]1C[C@H]1[C@@H](C2)C[C@H]([C@@H]([C@H]1C(=O)OC)OC)OC(=O)c1cc(OC)c(c(c1)OC)OC,-3.920833968,4.109,608.679
,C9938,QFCYIUYCKQKVBN-UHFFFAOYSA-N,OC(=O)CF,1.107671609,0.0405,78.0424
,C8609,QFDRTQONISXGJA-UHFFFAOYSA-N,OCC(COc1ccc(cc1)C=O)O,-0.783500908,0.2311,196.2
,C6976,QFDVMOCQOGCDKA-UHFFFAOYSA-N,OCC(C(=O)N1CC2CCC(C1)N2C)(c1ccccc1)C,-2.103955831,1.1174,288.385
,C1213,QFHJRGYAPLZITA-UHFFFAOYSA-N,O=c1[nH]c2c([nH]1)c(=O)n(c(=O)[nH]2)C,-1.5599999,-1.7568,182.137
,C5930,QFKMMXYLAPZKIB-UHFFFAOYSA-N,CCOC(=O)c1cc(OC)ccc1O,-2.76378673,1.5775,196.2
,C5329,QFLPSIUFCCCRMI-UHFFFAOYSA-N,OC(=O)Cc1ccc2c(c1)nc(o2)c1ccccc1,-3.14349007,3.1219,253.253
,C5385,QFLRLGOOCOLLPE-UHFFFAOYSA-L,CCCCCCCCCCCN,-3.108672516,4.1762,171.323
,C8531,QFLZIWVSQDZLNW-UHFFFAOYSA-N,ClCc1cccc(n1)C.Cl,-0.872158712,2.9308,178.059
,C1869,QFOHBWFCKVYLES-UHFFFAOYSA-N,C[N+](C1c2ccccc2c2c1cccc2)(CCCCCCCCCC[N+](C1c2ccccc2c2c1cccc2)(C)C)C.[Br-].[Br-],-8.165443184,3.808,718.646
,C3474,QFQFUYYLEUQHTP-UHFFFAOYSA-N,Brc1ccc2c(c1)C(=O)C(C2=O)c1ccccc1,-4.560212488,3.6119,301.135
,C801,QFQQCSOIKYRSMA-UHFFFAOYSA-N,CCCCOC(=O)c1ccc(cc1)O,-2.72,2.3491,194.227
,C6279,QFUYDAGNUJWBSM-UHFFFAOYSA-N,OS(=O)(=O)SCCNCCCNc1ccccc1,-2.547063418,3.1589,290.402
,C6203,QFVAWNPSRQWSDU-UHFFFAOYSA-N,CC(OC(=O)N)COc1ccccc1C,-2.594743457,2.5579,209.242
,C2740,QFVDKARCPMTZCS-UHFFFAOYSA-N,Ic1ccccc1c1ccccc1,-5.448630354,3.9582,280.104
,C2941,QFVZBSRARQASRO-UHFFFAOYSA-M,S=C1SCN(CN1Cc1ccccc1)Cc1ccccc1,-5.176388288,3.8133,314.468
,C2291,QFWPJPIVLCBXFJ-UHFFFAOYSA-N,CN(c1ccc(cc1)C(c1ccc(cc1)N(C)C)(c1ccc(cc1)N(C)C)O)C,-6.234529547,4.1688,389.533
,C9680,QFWPXOXWAUAYAB-XZVIDJSISA-M,COC(=O)CO[NH3+].[Cl-],0.638667801,-4.6631,141.554
,C7384,QFWQUVMXKWLKQA-UHFFFAOYSA-N,COCCOc1cnc(nc1)NS(=O)(=O)c1ccccc1,-1.826264376,2.4564,309.341
,C3626,QGBQYMQTQNOOHP-UHFFFAOYSA-N,O=C(C(C(=O)Oc1ccc2c(c1)CCC2)c1ccccc1)N[C@@H]1C(=O)N2[C@@H]1SC([C@@H]2C(=O)[O-])(C)C.[Na+],-4.411209613,1.4903,516.541
,C7230,QGBSISYHAICWAH-UHFFFAOYSA-N,FCC(=O)NC(C(Br)(Br)Br)O,-1.934545804,1.6199,357.798
,C6947,QGCAKXUASFKRJA-NRPADANISA-N,CCCC(C(CO)(CO)C)C,-2.125635762,1.4135,160.254
,C1518,QGCKCIHJVXAKGC-UHFFFAOYSA-N,N#CN=C(N)N,-0.31,0.14148,84.08
,C9219,QGCMBZODJHRGQM-UHFFFAOYSA-L,CN1C[C@H](C)C2=CC(=O)[C@H]([C@@H]2C1)C,0.168113267,1.2672,179.259