Name,Compound ID,InChIKey,SMILES,logS,logP,MW
,C8397,OUBHSSAWQNSXCU-UHFFFAOYSA-M,Cc1cccc(c(=O)c1)O,-0.981729269,1.0608,136.148
,C6708,OUDSBRTVNLOZBN-UHFFFAOYSA-N,CCCN(C(=O)c1nnn(c1C)c1ccccc1)CCC,-2.269420447,2.8379,286.372
,C9848,OUDYRLQMXADRRV-NSCUHMNNSA-N,N#CCCS(=O)(=O)[O-].[Na+],0.803771294,0.52608,157.124
,C525,OUFRIWNNMFWZTM-UHFFFAOYSA-M,O=C(NS(=O)(=O)c1ccc(cc1)C)NN1CCCCCC1,-3.6800001,3.5744,311.4
,C5298,OUFWPBPWBBMQCV-UHFFFAOYSA-L,CN1C2CCC1CN(C2)C/C=C/c1ccc(cc1)Cl,-3.170337047,3.0074,276.804
,C9022,OUGSOKCMASPUBA-UHFFFAOYSA-N,Nc1ccc(cc1)[As](=O)(O)[O-].[Na+],-0.155748658,-0.1508,239.036
,C9463,OUGWHDLNULSJCN-UHFFFAOYSA-N,C[N+]1(CCC[n+]2ccc3c(c2)cccc3)CCCC1.[Br-].[Br-],0.380696891,-3.2754,416.194
,C6613,OUHCZCFQVONTOC-UHFFFAOYSA-N,O=C1C(CCN1c1ccccc1)N1CCCC1,-2.337008816,1.8906,230.306
,C4015,OUUGPBMCNAINCY-UHFFFAOYSA-N,CN(CCCNc1nc(c(o1)c1ccccc1)c1ccccc1)C,-4.103957794,4.4452,321.416
,C7749,OUWWJCHXOLADFM-UHFFFAOYSA-L,CC(=O)OCC(COC(=O)C)(COC(=O)C)COC(=O)C,-1.5686344,0.2252,304.293
,C4961,OUYCCCASQSFEME-MRVPVSSYSA-N,CN1CCC(CC1)OC(=O)Nc1c(C)cccc1C,-3.414564661,2.957,262.347
,C9475,OUZWUKMCLIBBOG-UHFFFAOYSA-N,CC[N+](CCOCC[N+](CC)(CC)CC)(C)C.[Br-].[Br-],0.391209822,-4.0162,406.241
,C866,OVAZLWZUJJDABM-CCEZHUSRSA-N,OC(=O)[C@@H](Cc1ccc(cc1)O)N,-2.5699999,1.0469,181.189
,C489,OVBPIULPVIDEAO-LBPRGKRZSA-N,CCOc1ccc2c(c1)sc(n2)S(=O)(=O)N,-3.8099999,3.1235,258.317
,C2897,OVECGORDPUPRLI-BAUSSPIASA-N,CN(CCCN(c1c(C)cccc1C)C(=O)/C=C/c1ccccc1)C,-5.234701893,4.3015,336.471
,C2751,OVEMTTZEBOCJDV-UHFFFAOYSA-N,OC(=O)CC[C@@H](C(=O)O)NC(=O)c1ccc(cc1)NCc1cnc2c(n1)c(=O)nc([nH]2)N,-5.440716272,1.0003,441.397
,C8016,OVGLVOLWBBGQHS-DUXPYHPUSA-N,CN1C[C@@H]2C[C@H](C1)c1n(C2)c(=O)ccc1.I,-1.34240307,1.8333,332.181
,C4186,OVGORFFCBUIFIA-UHFFFAOYSA-N,CCCCCCc1ccc(cc1)N,-3.976845083,3.9728,177.286
,C9045,OVHFHUINIGGZIU-UHFFFAOYSA-M,CC(=O)/C=N/O,-0.128266439,0.0354,87.0773
,C6751,OVJVJGCIIHYJMS-UHFFFAOYSA-N,CCCCC(c1ccccc1)O,-2.246503763,2.9102,164.244
,C5386,OVKDZRWGBXJOPR-UHFFFAOYSA-N,CCC1(CCc2ccccc2)C(=O)[N-]C(=O)NC1=O.[Na+],-3.10824972,1.825,282.27
,C4848,OVMFJEGBXVTDOL-UHFFFAOYSA-N,CC[NH+](Cc1ccccc1)CCOc1ccccc1.[Cl-],-3.503218091,-0.8256,291.816
,C6315,OVOVDHYEOQJKMD-ZETCQYMHSA-N,CCOC(=O)Cn1c(CC)cnc1[N+](=O)[O-],-2.523937643,1.44,227.217
,C6173,OVRNILYWDQLUFB-UHFFFAOYSA-N,CCCC(C(COC(=O)N)(COC(=O)N)C)C,-2.6126023,3.0201,246.303
,C1207,OVSKIKFHRZPJSS-UHFFFAOYSA-N,OC[C@H](CC(C)C)C,-1.6,1.6609,116.201
,C8298,OVTCEDCBXAYKQZ-UHFFFAOYSA-N,COc1c(OC)cccc1C(=O)OCCN(C)C.Cl,-1.098420473,2.2242,289.755
,C889,OVUYDYFWRKGKKV-UHFFFAOYSA-M,OC(=O)COc1ccc(cc1Cl)Cl,-2.51,2.4568,221.037
,C6783,OVXQHPWHMXOFRD-UHFFFAOYSA-M,NC(=O)c1cn(C)c2=CCCC(n2c1=O)C,-2.227300197,0.4024,221.256
,C8115,OVYWMEWYEJLIER-UHFFFAOYSA-N,CCCC1(CC)C(=O)[N-]C(=O)NC1=O.[Na+],-1.256465353,0.9923,220.201
,C9502,OWCNPTHAWPMOJU-UHFFFAOYSA-N,CCOP(=O)(SCC[N+](C)(C)C)OCC.[I-],0.416546156,-0.3891,383.227
,C1015,OWFJMIVZYSDULZ-PXOLEDIWSA-N,Oc1ccc2c(c1)cccn2,-2.1600001,1.9404,145.158
,C1219,OWGHQPIPPHGSGP-UHFFFAOYSA-M,OCCCC(C)(C)C,-1.55,1.805,116.201
,C1693,OWISXYQFTOYGRO-UHFFFAOYSA-N,CN([C@@H]1C(=C(C(=O)N)C(=O)[C@@]2([C@H]1[C@@H](O)[C@H]1C(=C2O)C(=O)c2c([C@@]1(C)O)cccc2O)O)O)C	,-3.09 ,-0.5433,460.434
,C8905,OWJRDXJDAWXHST-UHFFFAOYSA-N,O=C1[N-]C(=O)C(O1)(C)C.[Na+],-0.367011145,0.146,151.096
,C6069,OWKWAVBMKKZMHE-UHFFFAOYSA-N,N#Cc1ccc(c(c1)C)C,-2.673816176,2.17508,131.174
,C6590,OWMFSWZUAWKDRR-UHFFFAOYSA-N,C[n+]1c2ccccc2c(c2c1cccc2)N.[Br-],-2.350572521,-0.0151,289.17
,C7023,OWMJKFSJIQIFBC-APSNUPSMSA-N,O=C(c1ccccc1)NNC(=S)N,-2.078381217,1.6467,195.242
,C9772,OWMPDOOBDJGPDB-UHFFFAOYSA-N,NCC(c1cccc(c1)O)O.Cl,0.722072321,1.8866,189.639
,C4058,OWNAXTAAAQTBSP-UHFFFAOYSA-N,CC(CN(CC(=O)N/N=C\c1ccc(o1)[N+](=O)[O-])CC(C)C)C,-4.068575653,3.166,324.375
,C1980,OWNRRUFOJXFKCU-IZZNHLLZSA-N,Brc1ccc(nc1)OCCCNCCSSCCNCCCOc1ccc(cn1)Br.Cl.Cl,-7.260027536,7.186,653.322
,C737,OWPWFVVPBYFKBG-NYVHBPEFSA-N,O=C(NC(C)(C)C)Oc1cccc(c1)NC(=O)N(C)C,-2.9300001,3.1309,279.335
,C345,OWQIUQKMMPDHQQ-UHFFFAOYSA-N,Brc1ccc(cc1)c1ccc(cc1)[C@@H](C[C@H](c1c(=O)oc2c(c1O)cccc2)c1ccccc1)O,-4.4499998,7.1837,527.405
,C3360,OWTTYIRLLHUZKU-UHFFFAOYSA-N,O=C[C@]12C[C@H]3O[C@@]4(O)[C@@H](O)C[C@H](O[C@H]4O[C@@H]3C[C@@H]1CC[C@@H]1[C@@H]2CC[C@]2([C@]1(O)CC[C@@H]2C1=CC(=O)OC1)C)C,-4.670665159,2.0007,532.622
,C5426,OWULVAZDMWJBLB-UHFFFAOYSA-N,CCN(CC(COC(=O)c1ccc(cc1)N)(C)C)CC,-3.081992061,3.3748,278.39
,C4939,OWUWCULIKLLRIP-UHFFFAOYSA-N,CNCCCC1(OCc2c1cccc2)c1ccccc1.Cl,-3.429552196,4.6529,303.826
,C7633,OWWVHQUOYSPNNE-UHFFFAOYSA-N,O=C(Nc1ccccc1)OCC(OC(=O)Nc1ccccc1)CN1CCCCC1.Cl,-1.637422689,5.2242,433.928
,C1817,OWYWGLHRNBIFJP-UHFFFAOYSA-N,CCOc1nc(ncc1C(=O)OCC)N1CCN(CC1)CCC(c1ccccc1)(c1ccccc1)c1ccccc1.Cl,-8.882266484,6.4036,587.151
,C802,OWZPCEFYPSAJFR-ZCFIWIBFSA-N,CCOc1ccc(cc1)C(=O)OCCN(CC)CC,-2.71,2.5839,265.348
,C497,OWZREIFADZCYQD-HBFSDRIKSA-N,CCN(c1nc(NC(C)C)nc(n1)Cl)CC,-3.79,2.2645,243.736
,C603,OXBBIHZWNDPBMQ-UHFFFAOYSA-N,CC[C@H](c1cc(cc(c1O)[N+](=O)[O-])[N+](=O)[O-])C,-3.3800001,3.7685,240.213
,C23,OXCMEGSBLSWICP-UHFFFAOYSA-L,N#C[C@@H](c1cccc(c1)Oc1ccccc1)OC(=O)[C@@H]1[C@H](C1(C)C)C=C(Br)Br,-8.3999996,6.49018,505.199
,C6923,OXCMYAYHXIHQOA-UHFFFAOYSA-N,OCCOCCN1CCN(CC1)C(c1ccccc1)c1ccccc1,-2.14113993,2.2783,340.459
,C9447,OXDSKEQSEGDAFN-UHFFFAOYSA-N,CC1c2ccccc2CC[N+]1(C)CCC[N+](C)(C)C.[Br-].[Br-],0.374431381,-3.1866,422.242
,C2977,OXERTUUKTZDQPG-UHFFFAOYSA-N,CCCCc1nc(c(n1Cc1ccc(cc1)c1ccccc1c1[n-]nnn1)CO)Cl.[K+],-5.13479081,3.8959,461.001
,C4907,OXFIVVVRVHQCKA-UHFFFAOYSA-N,FC(S(=O)(=O)Nc1ccccc1)(F)F,-3.448040303,3.1019,225.188
,C3740,OXKMQABFDJFCKD-UHFFFAOYSA-N,CCCCNC(=O)c1cc(Br)cc(c1O)C,-4.302807737,3.3839,286.165
,C6332,OXLHOZMVPXHJLA-UHFFFAOYSA-N,OC(=O)C(=O)[O-].CC1Oc2ccc(cc2N(C1=O)CCC[NH2+]C)Cl,-2.517395663,-1.0769,358.774
,C4537,OXMIHLGHUYDMCT-UHFFFAOYSA-N,C=CCN(c1c(C)n(c2ccccc2)c(=O)n(c1=O)C)CC=C,-3.700206102,2.023,311.378
,C1886,OXONWCQUZYDTNF-UHFFFAOYSA-N,N#CC(c1cccc2c1cccc2)(C(C)C)CC[NH+](CC=C(C)C)CC=C(C)C.[Cl-],-8.012497131,2.46858,425.049
,C6880,OXQGTIUCKGYOAA-UHFFFAOYSA-N,Clc1ccc2c(c1)CON(C2)C(=O)N,-2.163277811,2.3041,212.633
,C9060,OXQHGCWVMOLOBC-UHFFFAOYSA-N,OCC#CC#CC#CC(=O)N,-0.097302768,-0.8255,147.131
,C1424,OXRDNEBTSJFQLF-UHFFFAOYSA-N,CCC(C(=O)O)CC,-0.81,1.5072,116.158
,C9198,OXSRKPVVVMMMER-UHFFFAOYSA-N,Cc1cc(=O)c(=O)[nH][nH]1,0.134003551,-0.6284,126.113
,C9285,OXTGYDWQGFWOBE-UHFFFAOYSA-N,CCNCCNCCSP(=O)(O)O.CCNCCNCCSP(=O)(O)O.O.O.O.O.O,0.262355028,1.2649,546.575
,C4287,OXWXINKWKITCIH-UHFFFAOYSA-N,CCCC1OC(CCC)OC(O1)CCC,-3.889494479,3.4284,216.317
,C6251,OXZCDNQVGNORAH-UHFFFAOYSA-M,CCCOc1ccc(cc1C)CC(=O)NO,-2.564930683,2.2226,223.268
,C9735,OXZTXUBLTWIENJ-UHFFFAOYSA-N,[O-][N+](=O)c1cccc(c1)P(=O)(O)O,0.683537536,0.921,203.089
,C4917,OYDAIYIGFOBNQU-UHFFFAOYSA-N,CC[N+](CCn1c2ccccc2n(c(=O)c2c1cccc2)C)(CC)C.[I-],-3.4424975,0.5458,465.371
,C8256,OYFJQPXVCSSHAI-QFPUQLAESA-N,CC(C(COC(=O)N)(COC(=O)NCC#C)C)C,-1.125450766,2.1946,256.298
,C4149,OYIBHXRZSMTHLW-XIDBHWPPSA-N,CN(CC(=O)N1Cc2ccccc2CC2C1CCCC2)C.Cl,-4.003887144,3.4316,322.873
,C1975,OYIFNHCXNCRBQI-UHFFFAOYSA-N,OC(=O)/C=C\C(=O)O.CCOC(=O)[C@@H](N[C@H](C(=O)N1CCC[C@H]1C(=O)O)C)CCc1ccccc1,-7.294488262,1.6452,492.519
,C1741,OYIWRKOSDGPKFD-NMOJSDROSA-N,Clc1ccc2c(c1)/C(=C/CCN1CCCCC1)/c1c(S2)cccc1.Br,-11.32225509,7.0083,436.836
,C7329,OYMJHUCUQXLOTC-UHFFFAOYSA-N,OC(=O)CCCC(C(=O)O)N,-1.864826493,0.3535,161.156
,C3046,OYMOPEYQIAFWSQ-UHFFFAOYSA-N,COc1cccc2c1C(=O)c1c(C2=O)c(O)c2c(c1O)C(O[C@@H]1OC(C)[C@@H]([C@H](C1)N1CCOCC1)O)CC(C2)(O)C(=O)C,-5.049451359,1.3403,597.61
,C5559,OYMQAWWYAKWMSI-UHFFFAOYSA-N,CCCCC(COC(=O)N)(COC(=O)NCC#C)C,-3.00864678,2.7288,270.325
,C2949,OYPPVKRFBIWMSX-SXGWCWSVSA-N,CCN(CCn1c(=O)c2ccccc2[nH]c2c1cccc2)CC,-5.162158939,3.3868,309.405
,C3753,OYQZCMCEAPUWHK-UHFFFAOYSA-N,CC1CCN(CC1)CC(COC(=O)c1ccccc1)(C)C,-4.288340785,3.5394,289.412
,C5232,OYTINQKRJLYRPF-UHFFFAOYSA-N,CN(C/C=C(\c1cccnc1)/c1ccc(cc1)Br)C,-3.218525662,3.8374,317.224
,C5895,OYTKINVCDFNREN-UHFFFAOYSA-N,[O-][N+](=O)c1ccc(o1)c1n[nH]c(=O)[nH]c1=O,-2.782302142,0.1496,224.13
,C1895,OYVFJKVYVDYPFV-UHFFFAOYSA-M,Brc1ccc(cc1)CNCC1CCC(CC1)CNCc1ccc(cc1)Br.Cl.Cl,-7.899652518,8.2832,553.201
,C8839,OYZJQXIQTJRRCG-UHFFFAOYSA-N,Nc1cnccc1N,-0.455320675,1.4084,109.129
,C2399,OZDQCCZKFFTJBX-UHFFFAOYSA-N,CC[n+]1c(/C=C/C=C/C=C/C=c/2\sc3c(n2CC)cccc3)sc2c1cccc2.[I-],-6.021678493,3.1362,544.514
,C5393,OZHPKSFNBCNLER-UHFFFAOYSA-M,Nc1ccc2c(c1)cc1c(n2)ccc(c1)N,-3.10582577,3.7148,209.247
,C5316,OZKOMUDCMCEDTM-UHFFFAOYSA-N,O=C1Cc2ccccc2S(=O)(=O)N1Cc1ccccc1,-3.153034153,2.9789,287.334
,C8175,OZKQKNRORLBWRX-UHFFFAOYSA-L,O=c1[n-]c(=O)n(c2c1n(C)cn2)C.[Na+],-1.208761584,-1.3256,206.178
,C820,OZOMQRBLCMDCEG-VIZOYTHASA-N,c1cnc2c(c1)ccc1c2cccn1,-2.6800001,2.783,180.205
,C2200,OZQDLJNDRVBCST-SHUUEZRQSA-N,CC[N+]1(CCCCCC[N+]2(CC)CCCCC2)CCCCC1.[I-].[I-],-6.486753046,-1.4864,564.37
,C5068,OZWKMVRBQXNZKK-UHFFFAOYSA-N,O=C1CN(C(=O)N1)/N=C/c1ccc(o1)c1ccc(cc1)[N+](=O)[O-],-3.333527422,2.5304,314.253
,C9213,OZYUPQUCAUTOBP-QXAKKESOSA-N,OC[C@H]1O[C@H]([C@@H]([C@@H]1O)O)n1ncc(nc1=O)N,0.153821135,-2.5868,244.205
,C5671,PAAZPARNPHGIKF-UHFFFAOYSA-N,OC(=O)C1CCn2c1ccc2C(=O)c1ccccc1,-2.933080172,2.291,255.269
,C6117,PAJPWUMXBYXFCZ-UHFFFAOYSA-N,C=CCN1CC[C@@]23[C@H]([C@H]1Cc1c3cc(cc1)O)CCCC2,-2.651225013,3.5745,283.408
,C1172,PALMSMPURBFZAO-UHFFFAOYSA-N,BrCCBr,-1.6799999,1.7762,187.861
,C9432,PALPTWOXTUVPKA-UHFFFAOYSA-M,OC(=O)C1(N)CC1,0.364071873,0.2626,101.104
,C6916,PAMIQIKDUOTOBW-UHFFFAOYSA-N,CN1CCCC1c1c[nH]c2c1cccc2C,-2.143525768,3.1809,214.306
,C9717,PAMQYEWNNPDBLM-UHFFFAOYSA-N,[O-]S(=O)(=O)NC1CCCCC1.[K+],0.66289229,1.8406,217.328
,C1578,PAQSTZTUDSARQK-UHFFFAOYSA-N,CN1CCCCC1,0.23,1.04,99.1741
,C6362,PAQUKACYLLABHB-UHFFFAOYSA-N,CCCCOC(=O)c1ccco1,-2.498101451,2.2365,168.19
,C8086,PARMADWNFXEEFC-UHFFFAOYSA-N,OCC(COC(C(=C)C)Br)O,-1.284154904,0.6533,225.08
,C4188,PAXGOFRYFNADFZ-UHFFFAOYSA-N,CN(CCOC(c1ccc(cc1)Cl)(c1ccccc1)C)C.Cl,-3.975544121,4.9837,340.287
,C8731,PAYRUJLWNCNPSJ-UHFFFAOYSA-N,OS(=O)(=O)O.CCCCNCC(c1ccc(cc1)O)O.CCCCNCC(c1ccc(cc1)O)O,-0.605986481,4.8404,516.648
,C9026,PAZJSJFMUHDSTF-UHFFFAOYSA-N,CN1CCc2c(C1)ccc(c2)O.Cl,-0.154202161,2.12,199.677
,C1502,PAZQYDJGLKSCSI-UHFFFAOYSA-N,Nc1ccccc1,-0.41,1.85,93.1265
,C6103,PBAOPWLRQKRVIH-RMKNXTFCSA-N,C=CCc1ccccc1OCC(CNC(C)C)O,-2.658670251,2.5437,249.349
,C724,PBBGSZCBWVPOOL-HDICACEKSA-N,CCC1(C(=O)NC(=O)NC1=O)C1=CCCCCC1,-3,2.2969,250.294
,C4622,PBHIEANRWCQSNC-UHFFFAOYSA-N,CCC(=O)N1CC2CCC(C1)N2C/C=C/c1ccccc1,-3.65597456,2.6608,284.396
,C352,PBIHCSQFOZFORQ-UHFFFAOYSA-L,CC[C@H]([C@@H](c1ccc(cc1)O)CC)c1ccc(cc1)O,-4.4299998,4.7852,270.366
,C2850,PBKONEOXTCPAFI-UHFFFAOYSA-N,CCC(C(c1ccccc1)(c1ccccc1)CCC[NH+](C)C)OC(=O)C.[Cl-],-5.287828448,0.2431,389.959
,C9389,PBLPVWOFSDJWRG-UHFFFAOYSA-N,CC[N+](CCS(=O)CC[N+](CC)(CC)CC)(CC)CC.[Br-].[Br-],0.331277784,-2.6382,466.359
,C550,PBMFSQRYOILNGV-UHFFFAOYSA-N,Clc1ccc(c(c1)Cl)Cl,-3.5899999,3.6468,181.447
,C5449,PBOTXPDTKKNNFI-UHFFFAOYSA-N,Ic1ccc(nc1)OCCCN1CSCC1.Cl,-3.068833266,3.2013,386.68
,C1656,PBPCBTOCQIYTPL-UHFFFAOYSA-N,c1ccnnc1,1.1,0.4766,80.088
,C7971,PBPMFHCGVZTYHV-UHFFFAOYSA-N,CCCCN1CCN(CC1)C(=O)OCC,-1.391022275,1.4364,214.305
,C5778,PBSOJKPTQWWJJD-ZBDZJSKLSA-N,CCN(C(=O)c1nnn(c1C)c1ccccc1)CC,-2.865623791,2.0577,258.319
,C9086,PBSOMSJWGWNBEI-UHFFFAOYSA-L,CN(CCNc1ccccn1)C,-0.05975272,1.1281,165.236
,C4440,PBTJOTZZTRRCSV-UHFFFAOYSA-N,O[C@H]1CC[C@]2([C@](C1)(O)CC[C@@H]1[C@@H]2CC[C@]2([C@]1(O)CC[C@@H]2c1ccc(=O)oc1)C)C,-3.768475227,3.3568,402.524
,C7141,PBTLILOQGAAHIW-UHFFFAOYSA-N,OC(COP(=O)([O-])[O-])COc1ccccc1C.[K+].[K+],-2.003062829,1.7204,338.377
,C2955,PBVRVFGGNJUBSU-UHFFFAOYSA-M,OS(=O)(=O)SCCNCCCCCOc1cccc(n1)OCCCCCNCCSS(=O)(=O)O,-5.154040674,5.3744,561.757
,C6071,PBYJDHRFPFHVKZ-OQKDUQJOSA-N,n1ccc(cc1)CCc1c[nH]c2c1cccc2.Cl,-2.673306319,4.1501,258.746
,C9684,PCBOHSPTDSBFFP-UHFFFAOYSA-N,CCC[N+](C)(C)C.[I-],0.639965433,-1.8934,229.102
,C1811,PCGVPMHGSJFFTI-ZEYGOCRCSA-N,CCCCCCOc1ccc(c2c1cccc2)C(=N)N(CCCC)CCCC.Cl,-8.933846013,7.9282,419.043
,C8993,PCGWRXYZXVZXIN-UHFFFAOYSA-L,C=CCSC(c1ccccn1)C(=O)N.Cl,-0.224346776,3.0295,244.741
,C4588,PCHPORCSPXIHLZ-UHFFFAOYSA-N,O=C1C[C@@H]2OCC=C3[C@H]4[C@@H]2[C@@H]2N1c1ccccc1[C@]12CCN([C@H]1C4)C3.[O-][N+](=O)O,-3.671788718,2.2709,397.424
,C9270,PCLAZAJARAIGGD-UHFFFAOYSA-N,CC[N+](CCOc1ccc(cc1)OCC[N+](CC)(C)C)(C)C.[I-].[I-],0.248496861,-3.3552,564.284
,C5714,PCLRAGNZCNZQCA-UHFFFAOYSA-N,CN(CCOC(c1ccccc1)c1ccccc1)C.Cl,-2.90520694,4.1562,291.816
,C8798,PCMFUMTXXSUFNN-SQAJFTEPSA-N,CSc1nnc(s1)N,-0.515702772,1.4234,147.222
,C6897,PCOQOGIDTIFQAM-XFULWGLBSA-N,CCCCC(COC(=O)N)(COC(=O)N)C,-2.153824213,2.7741,232.277
,C6264,PCQXINPAZOWYGC-UHFFFAOYSA-N,OCCC(c1ccnc2c1cc(O)cc2)(C1CC2CCN1C/C/2=C\C)O.Cl.Cl,-2.558917961,4.0928,427.365
,C3948,PCRSJGWFEMHHEW-UHFFFAOYSA-N,CCC[NH+]1CCc2c3[C@H]1Cc1ccc(c(c1c3ccc2)O)O.[Cl-],-4.140717493,0.7862,331.836
,C4468,PCUCDCGDXBQWEX-UHFFFAOYSA-N,CNCCC1(C=Cc2c1cccc2)c1ccccc1.Cl,-3.751077058,4.8019,285.811
,C4533,PCUVRILJYXQWBX-UHFFFAOYSA-N,N#Cc1c(F)c(F)c(c(c1F)F)C#N,-3.702010523,1.98636,200.093
,C5165,PCWGTDULNUVNBN-UHFFFAOYSA-N,O=C(C(c1ccccc1)(c1ccccc1)O)OC1CN2CCC1CC2.Cl,-3.269532703,3.2998,373.873
,C7303,PCZFVTPRFQOIND-UHFFFAOYSA-M,C#CCN1C(=O)c2ccccc2CS1(=O)=O,-1.885821128,1.6241,235.259
,C1346,PCZOHLXUXFIOCF-BXMDZJJMSA-N,OCCCC(C)C,-1.14,1.4149,102.175
,C2273,PCZOHLXUXFIOCF-CRNKPSAOSA-N,[O-]C(=O)CCCCCCCCCCC1CCC=C1.[Na+],-6.286064107,3.6035,274.374
,C2859,PDBXHPORMXSXKO-UHFFFAOYSA-N,CC[C@@H](C(=O)O[C@H]1C[C@@H](C)C=C2[C@H]1[C@@H](CC[C@@H]1C[C@@H](O)CC(=O)O1)[C@H](C=C2)C)C,-5.277164463,4.1955,404.54
,C143,PDLWQTVMGHECQL-UHFFFAOYSA-N,CC[C@H](C(=O)O[C@@H]1C[C@H](C)C=C2[C@H]1[C@@H](CC[C@H]1C[C@@H](O)CC(=O)O1)[C@@H](C=C2)C)C,-6.0100002,4.1955,404.54
,C4928,PDMMFKSKQVNJMI-RCJFSGHNSA-N,OCCN(CCn1c(Cc2ccccc2)nc2c1c(=O)n(C)c(=O)n2C)CC.Cl,-3.437715557,1.1407,421.921
,C4777,PDNZJLMPXLQDPL-UHFFFAOYSA-N,CNC(=O)N1C(=O)CN=C(c2c1ccc(c2)[N+](=O)[O-])c1ccccc1,-3.560055428,2.5329,338.317
,C191,PDOLRXVBUWVQQX-UHFFFAOYSA-N,CCC(=O)O[C@H]1CC[C@@H]2[C@]1(C)CC[C@H]1[C@H]2CCC2=CC(=O)CC[C@]12C,-5.3699999,4.8401,344.488
,C9880,PDQAZBWRQCGBEV-UHFFFAOYSA-N,OCC1(N)CCCC1,0.855618056,0.9505,115.174
,C4346,PDQZSLQGPNGYIF-UHFFFAOYSA-N,COC(=O)c1c(C)ccc(c1OCC(=O)NCCN(C)C)C(C)C,-3.846561797,2.3525,336.426
,C1451,PDRGHUMCVRDZLQ-SJLPKXTDSA-N,S=C1NCCN1,-0.70999998,0.1217,102.158
,C5241,PDVQJRZXKZSVMU-UHFFFAOYSA-N,C=CCc1cccc(c1OCC(CO)O)C,-3.213369295,1.4555,222.28
,C208,PEDCQBHIVMGVHV-UHFFFAOYSA-N,Oc1ccc2c(c1)ccc1c2CC[C@@]2([C@@H]1CCC2=O)C,-5.2399998,3.9444,266.334
,C4348,PEEJUZZCANIEIL-UHFFFAOYSA-N,Clc1cnc(c(c1)Cl)SCCCCN1CSCC1.Cl,-3.843353527,5.0069,359.766
,C1660,PEGCITODQASXKH-UHFFFAOYSA-N,OCC(CO)O,1.12,-1.6681,92.0938
,C4819,PEHVGBZKEYRQSX-UHFFFAOYSA-N,Nc1oc2c(n1)cc(c(c2)Br)Cl,-3.527837028,3.4071,247.476
,C6537,PEIGKKFXAGEKFV-UHFFFAOYSA-N,CP(=O)(c1ccccc1)c1ccccc1,-2.384044404,2.6303,216.215
,C8967,PEOJOJMLYILUTC-UHFFFAOYSA-N,Nc1ncnc2c1cc[nH]2,-0.261277438,1.1213,134.139
,C5257,PERZMHJGZKHNGU-XIGAONJHSA-N,Clc1cccc2c1nc(OCCCNCCSS(=O)(=O)O)cc2C,-3.197610657,4.5628,390.905
,C9168,PESHFZNRQCTMDJ-UHFFFAOYSA-N,CCOC(=O)N1CCN(CC1)C.Cl,0.090439809,1.0681,208.686
,C9003,PESXGULMKCKJCC-UHFFFAOYSA-M,OC[C@H]1O[C@@H](OC[C@H]2O[C@@H](O[C@H]3[C@H](O[C@@H]([C@@]([C@@H]3OC(=O)N)(C)O)C(=O)O)OP(=O)(OC[C@H](C(=O)O)OC/C=C(/CC/C=C/C(CCC(=C)C/C=C(/CCC=C(C)C)\C)(C)C)\C)O)[C@@H]([C@H]([C@@H]2O[C@@H]2OC(C)[C@H]([C@@H]([C@H]2NC(=O)C)O)O[C@@H]2O[C@H](C(=O)NC3=C(O)CCC3=O)[C@@H]([C@@H]([C@H]2O)O)O)O)NC(=O)C)[C@@H]([C@H]([C@@H]1O)O)O,-0.199640557,0.4446,1583.57
,C1941,PEWXRXAGXPYMIB-ANPZCEIESA-L,S=c1[nH]nc(c(n1)c1ccccc1)c1ccccc1,-7.544697041,3.8682,265.333
,C7888,PFBQVGXIMLXCQB-VMPITWQZSA-N,COC(=O)c1ccc(cc1)[O-].[Na+],-1.46417491,1.617,174.129
,C6043,PFCHFHIRKBAQGU-UHFFFAOYSA-N,O=C(Cc1ccccc1)N[C@@H]1C(=O)N2[C@@H]1SC([C@@H]2C(=O)[O-])(C)C.O=C(Cc1ccccc1)N[C@@H]1C(=O)N2[C@@H]1SC([C@@H]2C(=O)[O-])(C)C.[Ca+2],-2.687954333,-0.2902,706.842
,C4874,PFENFDGYVLAFBR-UHFFFAOYSA-N,CCOC(=O)/C=C/c1ccc(cc1)[N+](=O)[O-],-3.480891325,2.6943,221.209
,C1418,PFEOZHBOMNWTJB-UHFFFAOYSA-N,CCCC(=O)CC,-0.82999998,1.7656,100.159
,C5178,PFGZYKXIUPPVPI-UHFFFAOYSA-L,CCOC(=O)c1c(N)sc2c1CCN(C2)Cc1ccccc1,-3.261464005,3.5844,316.418
,C520,PFHLJUZSAAHJKA-UHFFFAOYSA-L,CCC(CC)C,-3.6800001,2.4425,86.1754
,C9295,PFKRTWCFCOUBHS-UHFFFAOYSA-N,CC[N+](CCOC(=O)C1C[N+]2(C)CCC1CC2)(CC)C.[I-].[I-],0.269013549,-4.5308,538.246
,C9476,PFNHSEQQEPMLNI-LURJTMIESA-N,CC[N+](CC(OC(C[N+](CC)(C)C)C)C)(C)C.[Br-].[Br-],0.391209822,-4.0194,406.241
,C2218,PFOHZZSOQLQDSR-VMPITWQZSA-N,CCCCCCCCCCCCCCCCCCN(C)C.Cl,-6.433879049,7.6115,334.023
,C1352,PFPPOKZNVNZYRS-UHFFFAOYSA-N,CCC[C@@H](CO)C,-1.11,1.4149,102.175
,C3518,PFPSBRGOJCFWKD-UHFFFAOYSA-N,CCCC(COC(=O)NCC)(COC(=O)NC/C=C/C)C,-4.51961262,3.623,300.394
,C3061,PFPZRMUCMKVUEX-UHFFFAOYSA-N,C[NH2+]CCCn1c2ccccc2[nH]c(=O)c2c1cccc2.[Cl-],-5.026505922,-1.3677,317.813
,C7570,PFQDPIRIPKGLJL-UHFFFAOYSA-N,Fc1ccc2c(c1)nc(o2)N,-1.693658468,2.1303,152.126
,C4147,PFUAHBQDDRSAJC-UHFFFAOYSA-N,CCCCCCCc1ccc(cc1O)O,-4.006937473,3.6107,208.297
,C8367,PFYTUXBMXIBUQI-UHFFFAOYSA-N,C[NH+](CCOC(=O)COc1ccccc1)C.[Cl-],-1.007981952,-3.2429,259.729
,C6658,PGBHMTALBVVCIT-VCIWKGPPSA-N,FC(C1(CCNCC1)C(F)(F)F)(F)F.O,-2.306808353,2.7453,239.159
,C2733,PGBYZQMLFZWJHF-UHFFFAOYSA-N,CN1CCN(CC1)CCCOC(=O)N1c2ccccc2Sc2c1nccc2,-5.457789275,3.3992,384.495
,C9250,PGDPFMRYKOURHD-UHFFFAOYSA-N,OC[C@H]1O[C@H]([C@@H]([C@@H]1O[C@H]1O[C@@H](CN)[C@H]([C@@H]([C@H]1N)O)O)O)O[C@@H]1[C@@H](O)[C@H](N)C[C@@H]([C@H]1O[C@H]1O[C@H](CN)[C@H]([C@@H]([C@H]1N)O)O)N,0.2113721,-4.6935,614.644
,C6191,PGHIRTGWEUBCPY-UHFFFAOYSA-N,O=C1CN(C(=O)N1c1ccccc1)N=Cc1ccc(o1)[N+](=O)[O-],-2.600758729,2.5166,314.253
,C2924,PGIQMCOLYCTABQ-UHFFFAOYSA-N,CCCCOc1ccc(cc1)C(=O)OCCCN1CCCCC1C,-5.192645575,4.2247,333.465
,C1925,PGMYKACGEOXYJE-UHFFFAOYSA-N,N/C(=[NH+]/CCc1ccc(cc1)SC(C)(C)C)/CSSC/C(=[NH+]/CCc1ccc(cc1)SC(C)(C)C)/N.[Cl-].[Cl-],-7.633077934,-1.0814,635.842
,C5416,PGNKBEARDDELNB-UHFFFAOYSA-N,CCC(C(c1ccccc1)O)(CO)CC,-3.093382052,2.5187,208.297
,C1117,PGQAXGHQYGXVDC-UHFFFAOYSA-N,CCCCCOC(=O)C,-1.89,1.7397,130.185
,C8109,PGSADBUBUOPOJS-UHFFFAOYSA-N,OC(=O)C(CC(=O)O)(CC(=O)O)O.CCN(C(=O)N1CCN(CC1)C)CC,-1.260205651,-0.6771,391.417
,C5110,PGTFQVODURFDDZ-UHFFFAOYSA-N,CCCCCCCCCCCCN(C)C.Cl,-3.304287217,5.2709,249.864
,C8544,PGUKYDVWVXRPKK-UHFFFAOYSA-N,CN(c1ccc2c(c1)nc1c(n2)cc(c(c1)N)C)C.Cl,-0.858505602,4.1228,288.775
,C2066,PGWHWYBRRVQFCI-UHFFFAOYSA-N,CCN(CCOC(=O)C(c1cccc2c1cccc2)(c1cccc2c1cccc2)O)CC.Cl,-6.932520575,5.9159,463.996
,C7711,PHEOVVDXTQVHAZ-OFUZTXAKSA-N,COc1ccc(cc1)NC(=O)N,-1.591679164,1.9591,166.177
,C3306,PHIQHXFUZVPYII-ZCFIWIBFSA-N,COC(=O)c1c2ccccc2nc2c1cccc2,-4.734739428,3.1746,237.253
,C316,PHJFLPMVEFKEPL-UHFFFAOYSA-N,O=C1C=C[C@]2(C(=C1)CC[C@@H]1[C@@H]2[C@H](O)C[C@]2([C@H]1CC[C@]2(O)C(=O)COC(=O)C(C)(C)C)C)C,-4.5799999,3.1546,444.56
,C9840,PHJKPNBDCOWULD-UHFFFAOYSA-N,O[C@@H](C[N+](C)(C)C)CC(=O)[O-],0.792632268,-1.8065,161.199
,C5884,PHKGDSCTROXFQC-UHFFFAOYSA-N,COc1ccc2c(c1)ccc(c2)CC(=O)O,-2.790859935,2.4755,216.233
,C6312,PHMBVCPLDPDESM-ULAWRXDQSA-N,Clc1ccc(nc1)SCCCN1CSCC1.Cl,-2.528424468,3.9634,311.294
,C5010,PHNLCHMJDSSPDQ-UHFFFAOYSA-N,CCCN1CCN(CC1C(=O)Nc1ccccc1C)CCC.ON=O.ON=O,-3.379202834,2.9725,397.469
,C1559,PHNSAMVICKDQJR-UHFFFAOYSA-N,O[C@@H]1C[C@H]2CC[C@@H]([C@H]1C(=O)O)N2C,-0.02,-0.1475,185.22
,C3932,PHQBGRRDAYJMCR-UHFFFAOYSA-N,NC(=O)N1c2ccccc2CCc2c1cccc2,-4.151796517,3.7673,238.284
,C5061,PHRHVYRRQVLATP-UHFFFAOYSA-N,CCCOc1ccc(cc1C)C=CC(=O)NO,-3.342206771,2.6933,235.279
,C2554,PHTQWCKDNZKARW-UHFFFAOYSA-N,CCCCC1=CC(N(C(C1)(C)C)C(=O)CN(CC)CC)(C)C,-5.730357367,4.1722,308.502
,C8688,PHTUQLWOUWZIMZ-BOPFTXTBSA-N,O=C1C2C3CCC(C2C(=O)N1c1ccccc1)O3,-0.687104251,1.4184,243.258
,C1480,PHUDGXZCRYIJCH-UHFFFAOYSA-N,OCCC(C)C,-0.51999998,1.0248,88.1482
,C2846,PHVGLTMQBUFIQQ-UHFFFAOYSA-N,CN(CC/C=C/1\c2ccccc2SCc2c1cccc2)C,-5.29121071,4.6757,295.442
,C7791,PHWNWYMCWKIFAK-UHFFFAOYSA-N,CC(SC(C(=O)N)(C)C)C,-1.534513828,2.0922,161.265
,C2864,PICQEJDBZKDWOD-UHFFFAOYSA-N,CNCCC=C1c2ccccc2CCc2c1cccc2,-5.269219539,4.2173,263.377
,C6830,PIDSZXPFGCURGN-UHFFFAOYSA-N,CCCCCC(CO)(CO)C,-2.187783669,1.5576,160.254
,C5682,PIFFQYJYNWXNGE-UHFFFAOYSA-N,OC(=O)C(NS(=O)(=O)c1ccccc1)Cc1ccccc1,-2.923693682,3.1325,305.349
,C5092,PIFRKZZDDGEWQG-UHFFFAOYSA-N,CC(c1ccc(c(c1)Cl)N1CC=CC1)C(=O)O,-3.318115117,2.9693,251.709