Name,Compound ID,InChIKey,SMILES,logS,logP,MW
,C8849,JVHMUUUYNIPCPF-GDLZYMKVSA-N,CN(CCNC(C(F)(F)F)(C(F)(F)F)O)C,-0.445139685,1.3417,254.173
,C8904,JVKYZPBMZPJNAJ-OQFNDJACSA-N,CNC(=O)Oc1ccccc1C[N+](C)(C)C.[I-],-0.368224895,-0.9941,350.196
,C98,JVLDSHNWDWFUOP-DLGLCQKISA-N,Oc1ccc(c(c1)C)O[P@@](=O)(Oc1c(C)cccc1O)Oc1cc(O)ccc1C,-6.6999998,5.3735,416.361
,C1839,JVNBJLUJOYZINW-UHFFFAOYSA-N,O[C@H]1CC[C@]2(C(=CC[C@@H]3[C@@H]2CC[C@]2([C@H]3C[C@H]3[C@@H]2[C@H](C)[C@@H]2N3C[C@H](CC2)C)C)C1)C,-8.481563875,5.5929,397.636
,C7276,JVSWJIKNEAIKJW-UHFFFAOYSA-N,O=C1CC2C([C@]1(CC2)CS(=O)(=O)O)(C)C.CCCC(CCC)CN,-1.911753817,5.2122,361.54
,C3823,JVUWHIGJTFNRNT-UHFFFAOYSA-N,FCCCCCCCCCl,-4.230172793,3.5353,166.664
,C229,JVVTYCMWJNWWET-UHFFFAOYSA-N,CCCCCC(C)C,-5.0799999,3.2227,114.229
,C2277,JVWOCHRRAWHKLT-UHFFFAOYSA-N,CC[NH+](CCCOC(=O)n1c2ccccc2c2c1cccc2)CC.[Cl-],-6.2718079,0.098,360.878
,C4869,JVWYCUBGJVOEIZ-UHFFFAOYSA-N,O=C(N1C(C)(C)CCCC1(C)C)CNCc1ccco1,-3.485621599,3.2677,278.39
,C8860,JWAZRIHNYRIHIV-UHFFFAOYSA-N,CCN(CCOC(=O)c1cccnc1)CC,-0.433314049,1.5802,222.284
,C9242,JWBOIMRXGHLCPP-CYBMUJFWSA-N,CCOc1ccc(cc1)N.Cl,0.202829992,3.0507,173.64
,C979,JWBOIMRXGHLCPP-UHFFFAOYSA-N,Oc1ccc2c(c1)cccc2,-2.28,2.5454,144.17
,C110,JWCSIUVGFCSJCK-CAVRMKNVSA-N,ClC([C@@H](c1ccccc1Cl)c1ccc(cc1)Cl)Cl,-6.5100002,5.929,320.041
,C2194,JWDYCNIAQWPBHD-UHFFFAOYSA-N,ClC(C(c1ccccc1Cl)c1ccc(cc1)Cl)Cl,-6.50519612,5.929,320.041
,C5219,JWEWVPITHISXGZ-BTJKTKAUSA-N,CO[C@@]1(NC(=O)C(c2ccc(cc2)O)C(=O)O)C(=O)N2[C@@H]1OCC(=C2C(=O)O)CSc1nnnn1C,-3.227706523,-0.7989,520.473
,C8201,JWHAUXFOSRPERK-UHFFFAOYSA-N,OCC(COc1ccccc1C)O,-1.188711628,0.727,182.216
,C2475,JWKFZZGSPJAEOR-JQRUBDMOSA-N,CC(NCC1COC2(O1)c1ccccc1C=Cc1c2cccc1)C.OC(=O)/C=C\C(=O)O,-5.870854821,3.8876,437.485
,C4769,JWLVVNRQYDFQGA-GQCTYLIASA-N,CCCNCC(COc1ccccc1C(=O)CCc1ccccc1)O,-3.563539839,3.6323,341.444
,C2803,JWQWFYMPBWLERY-UHFFFAOYSA-N,Oc1ccc2c(c1)[C@]13CCCC[C@H]3[C@@H](C2)N(CC1)C/C=C/c1ccccc1.Br,-5.345018877,6.06,440.416
,C7863,JWRCUYLINWYGMN-UHFFFAOYSA-N,C/C=C(/C(=O)NC(=O)N)\C(C)C,-1.482802173,1.8748,170.209
,C7828,JWRMHDSINXPDHB-OJAGFMMFSA-N,CC(CCCC([NH3+])C)C.[Cl-],-1.510065652,-1.5529,165.704
,C2368,JWRZCPAJSVTHSO-UHFFFAOYSA-N,C1CC(CCC1CNC1CC2CC1CC2)CNC1CC2CC1CC2.Cl.Cl,-6.085989724,6.735,403.472
,C2356,JWUCHKBSVLQQCO-MRXNPFEDSA-N,O=C1C=C[C@]2(C(=C1)[C@@H](F)C[C@@H]1[C@]2(F)[C@@H](O)C[C@]2([C@H]1C[C@H]([C@]2(O)C(=O)COC(=O)C(C)(C)C)C)C)C,-6.100946962,3.4407,494.568
,C4443,JWUJQDFVADABEY-RXMQYKEDSA-N,CC[NH+](CCCN1C(=O)C(C)Oc2c1cc(Cl)cc2)CC.[Cl-],-3.766893328,-1.1623,347.28
,C607,JWUWTBFSZIYWIN-UHFFFAOYSA-M,Fc1ccc(cc1)[C@@](c1ccccc1F)(Cn1cncn1)O,-3.3699999,2.4924,301.291
,C1573,JWUXJYZVKZKLTJ-UHFFFAOYSA-N,C[C@@H]1CCCO1,0.11,1.1853,86.1323
,C3565,JWVJIHOQHASVCJ-UHFFFAOYSA-N,C[N+]1(CCCCC1)CCN(C1CCCCC1)C1CCCCC1.[Cl-],-4.470831066,1.5471,342.99
,C9566,JWVYQQGERKEAHW-UHFFFAOYSA-N,O=C1CC(C)(C)NC(C1)(C)C,0.528739061,1.8249,155.237
,C4642,JWYUFVNJZUSCSM-UHFFFAOYSA-N,CN1CCCC(C1)OC(=O)Nc1c(C)cccc1Cl,-3.645929417,3.302,282.766
,C7914,JXCFPQRFQYEEGF-UHFFFAOYSA-N,O=c1ccc2c(o1)c(O)c1c(c2)cco1,-1.443574569,2.2448,202.163
,C8431,JXCGFZXSOMJFOA-UHFFFAOYSA-N,Nc1nc2c([nH]1)cccc2,-0.950585427,1.7263,133.151
,C3125,JXCWCFNXJLYNDP-QXAKKESOSA-N,C=CCc1ccc(c(c1)OC)Oc1ccccc1,-4.952622591,4.216,240.297
,C584,JXDYKVIHCLTXOP-UHFFFAOYSA-N,O=C(N(C)C)Nc1ccc(c(c1)Cl)C,-3.46,2.8149,212.676
,C6450,JXFDNEIQTJJIDQ-UHFFFAOYSA-N,CC(=O)CN1CC[C@@]23[C@H]([C@H]1Cc1c3cc(cc1)O)CCCC2,-2.442848348,2.9775,299.407
,C8395,JXFPTJYKYKVENJ-UHFFFAOYSA-M,O=C1C(=O)Nc2c1cccc2,-0.983871053,0.9594,147.131
,C6271,JXFXKSDXMALIDC-UHFFFAOYSA-N,CCC(=O)OC12CCN(C(C1)Cc1c2cccc1)C.Cl,-2.553502952,3.2253,295.804
,C6975,JXKQVGCVDCOCJA-UHFFFAOYSA-N,CCOC(=O)C[S+](C)C.[Br-],-2.104813241,-2.5686,229.135
,C4035,JXLYSJRDGCGARV-XQKSVPLYSA-N,CCC(=O)c1ccc(cc1)OCC(CC1CN=CC=C1c1ccccc1)O,-4.084781849,3.6289,363.45
,C5584,JXMIBUGMYLQZGO-UHFFFAOYSA-N,CSc1c(Cl)nc(nc1N1CCN(CC1)C)NC(C)(C)C,-2.985616075,2.89,329.892
,C1981,JXSJBGJIGXNWCI-QMMMGPOBSA-N,COc1cc2N(C)[C@@H]3[C@@]4(c2cc1[C@]1(C[C@@H]2CN(CCc5c1[nH]c1c5cccc1)C[C@](C2)(O)CC)C(=O)OC)CCN1[C@H]4[C@@]([C@H]([C@]3(O)C(=O)OC)OC(=O)C)(CC)C=CC1,-7.259874905,3.9317,810.974
,C1750,JXVIIQLNUPXOII-JTDNENJMSA-N,O=C(Nc1c(I)cc(c(c1I)C(=O)O)I)COCCOCCOCC(=O)Nc1c(I)cc(c(c1I)C(=O)O)I,-10.9116823,5.4836,1215.81
,C610,JXXCENBLGFBQJM-FYZOBXCZSA-N,CCOC(=O)C[C@@H](C(=O)OCC)SP(=S)(OC)OC,-3.3699999,2.7724,330.358
,C427,JXXCENBLGFBQJM-UHFFFAOYSA-N,O=C(Nc1ccccc1)N[C@@H]1CCCC[C@H]1C,-4.1100001,3.8507,232.321
,C9762,JXYDRIBYAKJTIW-UHFFFAOYSA-N,O[C@@H](C[N+](C)(C)C)CC(=O)O.[Cl-],0.704083406,-3.4678,197.66
,C9761,JXYWFNAQESKDNC-BTJKTKAUSA-N,OC(C[N+](C)(C)C)CC(=O)O.[Cl-],0.704083406,-3.4678,197.66
,C7606,JXZZEXZZKAWDSP-UHFFFAOYSA-N,OCc1c(CS)cnc(c1O)C,-1.660282094,1.0177,185.243
,C4823,JYCBKPOKWDDOOV-UHFFFAOYSA-N,OC(=O)/C=C\C(=O)O.COc1ccc(cc1)CN(c1ccccn1)CCN(C)C,-3.52446429,2.3702,401.456
,C2667,JYGFTBXVXVMTGB-UHFFFAOYSA-N,O=C(c1ccccc1)NC1CCN(CC1)CCc1c[nH]c2c1cccc2,-5.548840068,3.9336,347.453
,C2445,JYGLAHSAISAEAL-UHFFFAOYSA-N,CCCCOc1ccc(cc1)NC(=S)Nc1ccc(cc1)N(C)C,-5.927386813,4.8864,343.486
,C8215,JYGXADMDTFJGBT-MKIDGPAKSA-N,O=C1Cc2c(N1)cccc2,-1.163965507,1.3192,133.147
,C2381,JYGXADMDTFJGBT-VWUMJDOOSA-N,O=C(C1C(=O)c2c(C1=O)cccc2)C(c1ccccc1)c1ccccc1,-6.054840215,4.083,340.371
,C731,JYIJIIVLEOETIQ-XDQVBPFNSA-N,OCC(=O)[C@@]1(O)CC[C@@H]2[C@]1(C)C[C@@H](O)[C@H]1[C@H]2CCC2=CC(=O)CC[C@]12C,-2.97,1.7816,362.46
,C5476,JYJFNDQBESEHJQ-UHFFFAOYSA-N,OCC(=O)[C@@]1(O)CC[C@@H]2[C@]1(C)C[C@H](O)[C@H]1[C@H]2CCC2=CC(=O)CC[C@]12C,-3.054117297,1.7816,362.46
,C6401,JYLIAQPHVDFOQO-UHFFFAOYSA-N,O=C1CCC[C@H]2N1C[C@@H]1C[C@H]2CN2[C@H]1CCCC2,-2.474975811,1.7475,248.364
,C8908,JYNMKSDVPCAZCM-UHFFFAOYSA-N,O=C1NC(=O)C(O1)(C)C,-0.359851662,0.3602,129.114
,C3369,JYVLIDXNZAXMDK-RXMQYKEDSA-N,C[NH+](CCOC(c1ccc(cc1)I)c1ccccc1)C.[Cl-],-4.660885233,-0.4543,417.712
,C2593,JYWIYHUXVMAGLG-UHFFFAOYSA-N,CCCCCCCCSCCCCCCN1CSCC1.Cl,-5.672849211,6.3867,354.057
,C1522,JYWKEVKEKOTYEX-UHFFFAOYSA-N,CCC[C@H](O)C,-0.28999999,1.1673,88.1482
,C2020,JYWZOJISGOBZDP-UHFFFAOYSA-N,Clc1cc(NC(=O)c2c(O)c(Cl)cc(c2Cl)Cl)c(c(c1)Cl)O,-7.106005414,5.6901,401.457
,C4524,JYYFMIOPGOFNPK-AGRJPVHOSA-N,Cl/N=C/1\C=C(Br)C(=O)C(=C1)Br,-3.706796148,2.7215,299.347
,C4625,JYYLQSCZISREGY-UHFFFAOYSA-N,COc1ccc(cc1)C1SCCS1,-3.654903275,3.1738,212.332
,C1856,JYYNAJVZFGKDEQ-UHFFFAOYSA-N,CC/C=C\C/C=C\C/C=C\CCCCCCCC(=O)OCC,-8.334127951,6.139,306.483
,C4578,JYZPVFDNYWNWHP-UHFFFAOYSA-N,Clc1ccc(c(c1)N)C(=O)O,-3.676718922,2.2016,171.581
,C1593,JZCHJJOTIZFWJJ-UHFFFAOYSA-N,Cc1ccnc(c1)C,0.38,1.6984,107.153
,C5070,JZCOHOFRCPHFPZ-LZMXEPDESA-N,C[NH+](CCOC(c1cccc(c1)C)c1ccccc1)C.[Cl-],-3.333214475,-0.7505,305.842
,C5268,JZFPYUNJRRFVQU-UHFFFAOYSA-N,CCCC(C(NC(=O)C)C)CCC,-3.188719954,3.1183,185.306
,C4117,JZGUQAMYFQKVSO-ZHACJKMWSA-N,CCCC/C=N/CCOC(=O)c1cccc(c1OC)OC.Cl,-4.028319838,3.9236,329.819
,C1679,JZHFCTMECLSJFP-UHFFFAOYSA-N,OC(=O)c1cccnc1Nc1cccc(c1)C(F)(F)F	,-4.58 ,3.6152,282.218
,C5332,JZLURVIGARJQHZ-UHFFFAOYSA-N,CN(/N=N/c1ccc(cc1)Cl)C,-3.143391012,2.9003,183.638
,C5785,JZQKKSLKJUAGIC-UHFFFAOYSA-N,O=C(c1ccc(cc1)Cl)C=NN1CCCC1,-2.859648689,2.5422,236.697
,C2819,JZUFKLXOESDKRF-UHFFFAOYSA-N,OC(=O)C(c1ccc2c(c1)ccc1c2cccc1)C,-5.326573637,4.1811,250.292
,C1684,JZUTXVTYJDCMDU-MOPGFXCFSA-N,OC(COc1cccc2c1cc[nH]2)CNC(C)C	,-3.79 ,2.2965,248.321
,C840,JZWFDVDETGFGFC-UHFFFAOYSA-N,Clc1cc2NCNS(=O)(=O)c2cc1S(=O)(=O)N,-2.6199999,2.9774,297.739
,C426,JZWOKDTXYPEJEW-UHFFFAOYSA-N,COc1c(OC)ccc2c1C(=O)O[C@@H]2[C@@H]1N(C)CCc2c1cc1OCOc1c2,-4.1100001,2.8111,383.395
,C8403,KAASYKNZNPWPQG-UHFFFAOYSA-N,CC(=O)NC(=O)c1ccccc1O,-0.978427093,1.0594,179.173
,C3645,KAATUXNTWXVJKI-HBFSDRIKSA-N,Clc1ccc2c(c1)C(=NCCN2)c1ccccc1,-4.392448356,3.1765,256.73
,C6539,KAAZGXDPUNNEFN-UHFFFAOYSA-N,COc1ccc2c(c1)c(CCN1CCCC1)c[nH]2,-2.383669641,2.7527,244.332
,C35,KAERBVZTGPZZHW-UHFFFAOYSA-N,N#C[C@@H](c1cccc(c1)Oc1ccccc1)OC(=O)[C@@H]1[C@H](C1(C)C)C=C(Cl)Cl,-8.0200005,6.17798,416.297
,C4019,KAESVJOAVNADME-UHFFFAOYSA-N,CN1CCN(CC1)C1=Nc2ccccc2Sc2c1cc(Cl)cc2,-4.097539405,3.4417,343.874
,C2761,KAHQJDOPZZKJHB-UHFFFAOYSA-N,COc1ccc(cc1)Nc1cc(Cl)ccc1C(=O)O,-5.418276286,3.8634,277.703
,C1539,KAIFALFPMBMXPL-CHHCPSLASA-N,c1ccc[nH]1,-0.17,1.0147,67.0892
,C6120,KAIFALFPMBMXPL-KJEVSKRMSA-N,CN(c1c(C)n(C)c(=O)n(c1=O)C1CCCC1)C,-2.650508016,1.0365,251.325
,C2681,KAJKCHGGCRPQLG-UHFFFAOYSA-N,CN(C/C=C\1/c2ccccc2Sc2c1cc(Cl)cc2)C.Cl,-5.524967799,5.5999,338.295
,C2682,KAKFVUQHGXFCIM-FJUODKGNSA-N,CN(C/C=C/1\c2ccccc2Sc2c1cc(Cl)cc2)C.Cl,-5.524967799,5.5999,338.295
,C2872,KAKFVUQHGXFCIM-KIUKIJHYSA-N,CCOC(=O)N1Cc2ccccc2c2c1cccc2,-5.260622087,3.8951,253.296
,C2172,KAKXDVMMEINZJU-UHFFFAOYSA-N,CN(CC/C=C/1\c2ccccc2Sc2c1cc(cc2)C(F)(F)F)C.Cl,-6.557060603,6.3554,385.874
,C2173,KAKZBPTYRLMSJV-UHFFFAOYSA-N,CN(CC/C=C\1/c2ccccc2Sc2c1cc(cc2)C(F)(F)F)C.Cl,-6.557060603,6.3554,385.874
,C6370,KANLOADZXMMCQA-UHFFFAOYSA-N,CN1OCc2c(C1)cc(cc2)[N+](=O)[O-],-2.496536213,1.9329,194.187
,C1121,KATMQOFDULSKOZ-CHHCPSLASA-N,C=CC=C,-1.87,1.3584,54.0904
,C153,KAZPHAGSWZTKDW-UHFFFAOYSA-N,Cc1ccc2c(c1)ccc1c2cccc1,-5.8400002,4.3014,192.256
,C8194,KBAUFVUYFNWQFM-UHFFFAOYSA-N,Cn1ccn(/c/1=C\[NH+]=O)COCC1CCCCC1.[Cl-],-1.196621576,-2.7489,287.786
,C8718,KBDDIZRDKLGWGW-UHFFFAOYSA-N,COc1cc(ccc1OC)CC(N)C,-0.642355305,2.2938,195.258
,C8670,KBEBGUQPQBELIU-CMDGGOBGSA-N,OC(=O)CCC(=O)O.CN(CCOC(c1ccccn1)(c1ccccc1)C)C,-0.717777831,2.8591,388.457
,C9659,KBGDSIVKVKJSJB-UHFFFAOYSA-N,NCCCNCCCCNCCCN.Cl,0.621958403,2.6278,238.801
,C725,KBGJFZIQEQXMJB-UHFFFAOYSA-L,CCOC(=O)/C=C/c1ccccc1,-3,2.2629,176.212
,C8608,KBHMEHLJSZMEMI-KSYZLYKTSA-N,OCC(COc1ccccc1C=O)O,-0.783500908,0.2311,196.2
,C9461,KBHMHROOFHVLBA-UHFFFAOYSA-N,CC[N+](CCOCC[N+]1(CC)CCCCC1)(C)C.[Br-].[Br-],0.378555744,-3.9133,418.251
,C9080,KBKUJJFDSHBPPA-ZNCGZLKOSA-N,OC[C@H]1O[C@H]([C@@H]([C@@H]1O)O)c1[nH]nc2c1ncnc2N,-0.067074106,-1.3297,267.241
,C8130,KBLOTQMFQLJJPR-UHFFFAOYSA-N,CC(C(=O)c1ccccc1)N(C)C,-1.244687703,1.8194,177.243
,C3783,KBNIFDASRCWYGC-GXNXWABVSA-J,O[C@H]1CC[C@]2([C@](C1)(O)CC[C@@H]1[C@@H]2CC[C@]2([C@]31O[C@@H]3[C@@H]([C@@H]2c1ccc(=O)oc1)OC(=O)C)C)C,-4.26050442,2.9148,458.544
,C8222,KBOBGSLTWZFGEJ-KSBRXOFISA-N,CC1CNC(N1)(C(F)(F)F)C(F)(F)F.O,-1.157764311,1.9819,240.147
,C1863,KBOPZPXVLCULAV-UHFFFAOYSA-N,Cc1cc(ccc1N/N=C/1\C=Cc2c(C1=O)c(N)c(cc2S(=O)(=O)[O-])S(=O)(=O)[O-])c1ccc(c(c1)C)N/N=C/1\C=Cc2c(C1=O)c(N)c(cc2S(=O)(=O)[O-])S(=O)(=O)[O-].[Na+].[Na+].[Na+].[Na+],-8.212514549,7.738,960.805
,C2401,KBPCUJVKCFELBB-UHFFFAOYSA-N,Fc1ccc2c(c1)N(C(=O)SCCN(C(C)C)C(C)C)c1c(S2)cccn1.Fc1ccc2c(c1)N(C(=O)SCCN(C(C)C)C(C)C)c1c(S2)cccn1.OC(=O)/C=C\C(=O)O,-6.018259001,11.4326,927.177
,C5405,KBPLFHHGFOOTCA-UHFFFAOYSA-N,Nc1ccc(c(c1)C(=O)O)O,-3.099076401,1.2538,153.135
,C2295,KBRJFXPGJDMODH-UHFFFAOYSA-L,Ic1ccc(nc1)SCCCCCCCCN1CCSC1.Cl,-6.229139405,5.8651,472.879
,C926,KBSVAZCLQHOLKP-JRTVQGFMSA-N,CCCCCCCCO,-2.3900001,2.3392,130.228
,C9427,KBTQRBOMLCMWMB-UHFFFAOYSA-L,CC[N+](CCCOCCC[N+](CC)(CC)CC)(C)C.[Br-].[Br-],0.362209181,-3.236,434.294
,C9707,KBXIJIPYZKPDRU-UHFFFAOYSA-N,OC[C@@H]([C@@H]([C@H](C=O)N)O)NC(=O)[C@H](N)C,0.659078226,-1.5107,219.238
,C9482,KCCCWBMAYXETHM-UHFFFAOYSA-N,Cc1cc2ccccc2c[n+]1CCC[N+](C)(C)C.[Br-].[Br-],0.393414435,-3.46,404.183
,C9709,KCCLFMFYEDPKEL-UHFFFAOYSA-N,NOCC(=O)O.NOCC(=O)O.Cl,0.66036971,0.1252,218.593
,C2236,KCCOKUSVNPDIBJ-UHFFFAOYSA-N,Cc1ccc(cc1)CNCC1CCC(CC1)CNCc1ccc(cc1)C.Cl.Cl,-6.3912901,7.375,423.462
,C8436,KCDXJAYRVLXPFO-UHFFFAOYSA-N,CCOC(=O)C1CC2CCN1CC2,-0.949179157,0.9717,183.247
,C1351,KCGKUMMLOWMRHO-UHFFFAOYSA-N,COc1ncnc2c1nccn2,-1.11,0.4284,162.149
,C7794,KCGUXDJRVTZQAT-UHFFFAOYSA-N,COc1cc(C=O)cc(c1O)OC,-1.533272957,1.2219,182.173
,C3420,KCKFGJBLLWMFIL-UHFFFAOYSA-L,CC(Oc1ccc(cc1)C(=O)OCCCN1CCCCC1C)C,-4.607869891,3.833,319.438
,C2108,KCLANYCVBBTKTO-UHFFFAOYSA-N,O=C(Nc1ccc(cc1Sc1ccc(cc1)Cl)Cl)CCN1CCCCC1,-6.784745668,5.97,409.372
,C1927,KCMDIHWIVFNRSU-HAAWTFQLSA-N,Clc1ccc(c(c1)S(=O)[O-])c1ccc(c(c1)SSSc1cc(ccc1Cl)c1ccc(cc1S(=O)[O-])Cl)Cl.[Na+].[Na+].O.O.O,-7.624430017,11.0963,766.512
,C5653,KCURWTAZOZXKSJ-JBMRGDGGSA-N,CCCOc1ccc(cc1N)C(=O)OCCN(CC)CC,-2.943108463,3.1374,294.389
,C4046,KCVHFFSPDODYOG-UHFFFAOYSA-N,COc1ccc(cc1)N1CCN(CC1)CCC(=O)/C=C/c1cc(OC)c(c(c1)OC)OC.Br,-4.075740252,4.4766,521.444
,C9001,KCVRSLICXICRCK-UHFFFAOYSA-N,OC[C@H]1O[C@H]([C@H]([C@@H]1O)O)n1ccc(nc1=O)N.Cl,-0.201144085,-1.1798,279.678
,C5057,KCXMKQUNVWSEMD-UHFFFAOYSA-N,OC(=O)C(CC(=O)O)(CC(=O)O)O.CCOC(=O)C1(CCCN(CC1)C)c1ccccc1,-3.342698589,1.2926,453.483
,C3724,KCXVZYZYPLLWCC-UHFFFAOYSA-N,CC(C1CCCCN1CCCOC(=O)c1ccccc1)C,-4.318512253,3.6819,289.412
,C924,KCXZNSGUUQJJTR-UHFFFAOYSA-N,ClCc1ccccc1,-2.3900001,2.4254,126.583
,C6413,KDCYOWUMMCQWCJ-UHFFFAOYSA-N,OC(=O)CN(CC(=O)O)CCN(CC(=O)O)CC(=O)O,-2.465745589,-2.0712,292.243
,C134,KDDQDUIBYASSFC-UHFFFAOYSA-N,CCCCCCOC(=O)c1ccccc1C(=O)OCCCCCC,-6.1399999,5.1608,334.45
,C3373,KDFBGNBTTMPNIG-UHFFFAOYSA-N,CN1CCC2=C(C1CCc1ccccc1)CCCC2,-4.659817587,4.1318,255.398
,C399,KDIAMAVWIJYWHN-UHFFFAOYSA-N,CCn1c2nc(C)cc(c2[nH]c(=O)c2c1nccc2)C(F)(F)F,-4.21,3.1821,322.285
,C9755,KDICASSDSSYKMK-UHFFFAOYSA-N,NCCc1c[nH]c2c1cccc2.Cl,0.698797757,3.1714,196.677
,C276,KDJPXQUBHNBSKZ-UHFFFAOYSA-L,CCCC1CCCC1,-4.7399998,2.9767,112.213
,C8151,KDKMJRJRONOCSH-UHFFFAOYSA-N,O=C1Nc2c(C1=O)c(C)ccc2,-1.23090728,1.2678,161.157
,C9342,KDKYADYSIPSCCQ-UHFFFAOYSA-N,CC[N+](CCCOCCC[N+](C)(C)C)(CC)C.[I-].[I-],0.300814648,-4.0162,500.241
,C2463,KDLRVYVGXIQJDK-AWPVFWJPSA-N,OC(=O)c1ccc2c(c1)CCc1c2cccc1,-5.892867985,3.1504,224.255
,C1320,KDOPUKOTJDLFQA-UHFFFAOYSA-N,CCC#C,-1.24,1.0296,54.0904
,C3945,KDQAABAKXDWYSZ-JKDPCDLQSA-N,CCC[C@H]1CN([C@@H](C1)C(=O)N[C@@H]([C@H]1O[C@H](SC)[C@@H]([C@H]([C@H]1O)O)O)[C@@H](Cl)C)C,-4.142506174,0.7183,424.983
,C2904,KDQYKOUUVSPPPI-UHFFFAOYSA-N,CCOC(=O)Cc1ccc2c(c1)nc(s2)c1ccccc1,-5.222880086,4.0689,297.372
,C1972,KDSPHRIFRARIST-UHFFFAOYSA-N,OS(=O)(=O)O.COc1cc2N(C)[C@@H]3[C@@]4(c2cc1[C@]1(C[C@@H]2CN(CCc5c1[nH]c1c5cccc1)C[C@](C2)(O)CC)C(=O)OC)CCN1[C@H]4[C@@]([C@H]([C@]3(O)C(=O)OC)OC(=O)C)(CC)C=CC1,-7.309258153,4.3597,909.053
,C1901,KDWMOTCARFFLTQ-UHFFFAOYSA-N,CCC(c1ccc2c(c1)N(CCCN(C)C)c1c(S2)cccc1)(C)C.Cl,-7.874521815,6.7956,391.013
,C2820,KDXCCWHVFRELBS-UHFFFAOYSA-N,OC(=O)C(c1cc2ccccc2c2c1cccc2)C,-5.326573637,4.1811,250.292
,C6292,KDXZREBVGAGZHS-UHFFFAOYSA-M,[O-][N+](=O)c1ccc(o1)C(=O)OCCC,-2.538783995,2.2778,199.161
,C4025,KDYFGRWQOYBRFD-UHFFFAOYSA-N,CN1CCC(CC1)OC(=O)C(c1ccccc1)c1ccccc1.Cl,-4.091751096,4.1958,345.863
,C6928,KEECCEWTUVWFCV-UHFFFAOYSA-N,CCC#CC(C1(CC=C)C(=O)N=C(N(C1=O)C)[O-])C.[Na+],-2.135699761,0.757,284.286
,C1534,KEEGZHRRNDVIKI-UHFFFAOYSA-L,OC(=O)CCC(=O)O,-0.2,-0.0642,118.088
,C7030,KEGGEHPMMDYTGB-UHFFFAOYSA-N,CCN(CCNC(=O)c1ccc(cc1)NC(=O)C)CC,-2.068858113,2.1805,277.362
,C9355,KEJCWVGMRLCZQQ-YJBYXUATSA-N,CCCCC[N+](CCOCC[N+](CCCCC)(CC)CC)(C)C.[Br-].[Br-],0.309441568,-1.6756,490.4
,C4796,KEJFADGISRFLFO-UHFFFAOYSA-N,CC(c1ccc(c(c1O)C(C)C)C)C,-3.544411457,3.9474,192.297
,C4571,KEJXLQUPYHWCNM-UHFFFAOYSA-N,CO/N=C(/c1ccco1)\C(=O)N[C@@H]1C(=O)N2[C@@H]1SCC(=C2C(=O)OC(OC(=O)C)C)COC(=O)N,-3.680216422,0.8608,510.474
,C8658,KENZYIHFBRWMOD-UHFFFAOYSA-N,Nc1ccc2c(c1)[nH]nc2,-0.728154903,1.7263,133.151
,C6128,KEQGZUUPPQEDPF-UHFFFAOYSA-N,CCCOC(=O)Cc1ccc(c(c1)OC)OCC(=O)N(CC)CC,-2.644390698,2.4381,337.411
,C72,KESIVIFULUTLKQ-UHFFFAOYSA-L,Clc1ccc(c(c1)c1ccc(c(c1)Cl)Cl)Cl,-7.25,5.9672,291.988
,C849,KETJZVQYVUKNHG-UHFFFAOYSA-N,ClN1C(=O)N(C(C1=O)(C)C)Cl,-2.5999999,1.2126,197.019
,C4833,KETSPIPODMGOEJ-UHFFFAOYSA-B,NCCCl.NCCCl.[Cl-].[Cl-].[Pt+2],-3.517838039,-4.2261,425.041
,C2099,KEUDYNSIGHFSQH-UHFFFAOYSA-N,Clc1ccc(c(c1)Sc1ccc(cc1)Cl)NCCCN1CCCCC1.Cl,-6.807957607,7.2454,431.85
,C9134,KEUMBYCOWGLRBQ-UHFFFAOYSA-N,[O-]P(=O)(OC1C(OP(=O)([O-])[O-])C(OP(=O)([O-])[O-])C(C(C1OP(=O)([O-])[O-])OP(=O)([O-])[O-])OP(=O)([O-])[O-])[O-].[Na+].[Na+].[Na+].[Na+].[Na+].[Na+].[Na+].[Na+].[Na+].[Na+].[Na+].[Na+],0.034417341,2.1258,923.817
,C1909,KEWNKZNZRIAIAK-UHFFFAOYSA-N,BrCCN(c1ccc(cc1)OC(=O)c1cccc(c1)C(F)(F)F)CCBr,-7.808232024,5.5208,495.128
,C4535,KEYYFWXKFRRLOZ-UHFFFAOYSA-N,CC(c1ccc(c(c1)C(C)C)O)C,-3.700862068,3.639,178.271
,C611,KEZAHVUYFHPESR-UHFFFAOYSA-N,Clc1cc(Cl)c(c(c1Cl)O)Cl,-3.3699999,4.0058,231.891
,C6107,KFDCKHFUEWIBFZ-UHFFFAOYSA-N,Brc1cc(C)c(c(c1)C(=O)N)O,-2.655893808,2.2623,230.059
,C3314,KFDZTHIWFNKNAO-UHFFFAOYSA-N,CCC(C(c1ccccc1)(C(=O)N)CCN1CCCCC1)C,-4.715002279,3.97,302.454
,C2087,KFETUQFRWIVAMU-UHFFFAOYSA-N,Clc1ccc(cc1)CNCC1CCC(CC1)CNCc1ccc(cc1)Cl.Cl.Cl,-6.845936943,8.065,464.299
,C6729,KFIGICHILYTCJF-UHFFFAOYSA-N,O=C(c1ccc(cc1)[N+](=O)[O-])Nc1ncc[nH]1,-2.258650394,2.1664,232.196
,C8096,KFKRXESVMDBTNQ-AMPAVEGJSA-N,CC(c1cccc(c1O)C)C,-1.273640633,2.824,150.218
,C9941,KFLRWGSAMLBHBV-UHFFFAOYSA-M,CNCCN,1.130023582,0.2557,74.1249
,C1879,KFNNIILCVOLYIR-UHFFFAOYSA-N,OC(=O)CCC1=C(C)/C/2=C/c3[nH]c(c(c3C)C(O)C)/C=c/3\[nH]/c(=C\C4=N/C(=C\C1=N2)/C(=C4C)CCC(=O)O)/c(C(O)C)c3C,-8.082604066,3.0569,598.689
,C9870,KFRSAMMHRXBCJH-UHFFFAOYSA-N,[O-]C(=O)c1cccnc1.[Na+],0.83835354,-0.5549,145.091
,C1483,KFTODZKBBUMDQB-UHFFFAOYSA-N,CCCOC=O,-0.49000001,1.2053,88.1051
,C6620,KFTWTNRNXVBUCC-UHFFFAOYSA-N,N/C(=[NH+]/CC1CCCC1)/CSSC/C(=[NH+]/CC1CCCC1)/N.[Cl-].[Cl-],-2.332992824,-4.9676,415.488
,C5097,KFUSEUYYWQURPO-OWOJBTEDSA-N,FC(C(Br)(F)F)Cl,-3.315798096,2.5085,197.382
,C6044,KFUSXMDYOPXKKT-UHFFFAOYSA-N,OC(=O)CCC(=O)Nc1ccc(cc1)S(=O)(=O)NC(=O)C,-2.686456695,1.8594,314.314
,C1297,KFVSLSTULZVNPG-UHFFFAOYSA-N,Cl/C=C/Cl,-1.3,1.9352,96.9433
,C6755,KFXRYHOEBZEYSV-UHFFFAOYSA-N,Cc1ccccc1OCC1CO1,-2.244572095,1.7726,164.201
,C8877,KFYRPLNVJVHZGT-UHFFFAOYSA-N,OS(=O)(=O)O.OC(c1cc(O)cc(c1)O)CNC(C)(C)C.OC(c1cc(O)cc(c1)O)CNC(C)(C)C,-0.410914205,4.2484,548.647
,C1963,KFZMGEQAYNKOFK-UHFFFAOYSA-N,C=CCNc1cnnc(c1)N1CCN(CC1)CCC(c1ccccc1)(c1ccccc1)c1ccccc1.Cl.Cl,-7.384698627,7.3011,562.576
,C3578,KFZMXOLSYABOSE-UHFFFAOYSA-O,CN(CCC=C1c2ccccc2CCc2c1cccc2)C.Cl,-4.463324654,4.9706,313.864
,C1600,KGBXLFKZBHKPEV-UHFFFAOYSA-N,CC(O)C,0.43000001,0.3871,60.095
,C6111,KGFGBSRVWKBWIC-UHFFFAOYSA-N,CC[N+](CCC(c1ccccc1)(c1ccccc1)C(=O)N)(C)C,-2.654537864,3.6447,311.441
,C9062,KGFPEHPECNYMKJ-UHFFFAOYSA-N,OB(O)O,-0.092236273,-2.0518,61.833
,C7979,KGGHWIKBOIQEAJ-UHFFFAOYSA-N,OCCN(C(=O)Cn1ccnc1[N+](=O)[O-])CCO,-1.383442187,-0.8723,258.231
,C6615,KGHXFBVYXDFJGG-UHFFFAOYSA-N,CNCCCC12CC3CC(C1)CC(C2O)C3.Cl,-2.335487973,3.3661,259.815
,C8664,KGIFNEFQLJMDQJ-UHFFFAOYSA-N,NC(=O)c1ccccc1F,-0.720663722,1.6249,139.127
,C9014,KGKSTPKEAQNJJD-UHFFFAOYSA-N,CC(=O)Oc1ccccc1C(=O)N,-0.166917582,1.4111,179.173
,C8284,KGLCGIINOLSTEG-UHFFFAOYSA-N,CN1C(C)(C)CCC1(C)C,-1.104690074,2.2071,141.254
,C8253,KGLPWQKSKUVKMJ-UHFFFAOYSA-N,CC(C#CBr)(CC)O,-1.127499923,1.5032,177.039
,C4457,KGLXZENKLRRZJM-KTKRTIGZSA-N,Cc1ccc2c(c1)c(C)cc(n2)OCCCN1CSCC1,-3.75882287,3.5647,302.434
,C7435,KGMFIIRMHHMLND-UHFFFAOYSA-N,O=c1[nH][nH]c(=O)c2c1cccc2,-1.788307643,0.2164,162.145
,C6076,KGNQDBQYEBMPFZ-UHFFFAOYSA-N,C/N=c/1\oc2c(n1C)cccc2,-2.669699954,1.3018,162.189
,C8027,KGPAYJZAMGEDIQ-UHFFFAOYSA-N,COc1cc(CC(N)C)cc(c1)OC.Cl,-1.327537022,3.0958,231.719
,C681,KGQXYKPFNXVZOH-VILQZVERSA-N,Fc1ccc(cc1)I,-3.1300001,2.4303,221.999
,C4574,KGVPNLBXJKTABS-UHFFFAOYSA-N,COc1cc(ccc1OC)CC1N(C)CCc2c1cc(OC)c(c2)OC,-3.679894712,3.4306,357.443
,C9681,KGVVXUNDDIZWEL-UHFFFAOYSA-N,Cn1ccn(/c/1=C\[NH+]=O)COCC#C.[Cl-],0.638907075,-4.696,229.663
,C1553,KGVXVPRLBMWZLG-UHFFFAOYSA-N,Oc1noc(c1)C,-0.07,0.6886,99.088
,C8669,KGWDUNBJIMUFAP-KVVVOXFISA-N,Nc1ccc2c(c1)nc(o2)N,-0.718787133,2.1546,149.15
,C3808,KHBQMWCZKVMBLN-UHFFFAOYSA-N,OC(=O)Cc1ccccc1Nc1c(Cl)cc(cc1Cl)O,-4.241262188,4.1427,312.148
,C2715,KHBXWZCAOWERPF-UHFFFAOYSA-N,CCCCCCCC/C=C\CCCCCCCC(=O)O.NCCO,-5.486774458,5.7462,343.544
,C1216,KHJLUGZFVDFOKZ-UHFFFAOYSA-N,NS(=O)(=O)c1ccccc1,-1.5599999,2.1151,157.19
,C5051,KHJRUGPUYSZNEP-UHFFFAOYSA-N,Cc1ccc(nc1)OCCCCCCN1CSCC1.Cl.Cl,-3.346803067,4.8774,353.351
,C7792,KHLVKKOJDHCJMG-QDBORUFSSA-L,CCC(c1ccccc1)(C(=O)N)O,-1.533555739,1.4698,179.216
,C2452,KHNYNFUTFKJLDD-UHFFFAOYSA-N,OC(=O)C(=O)[O-].Clc1ccc2c(c1)n(CC[NH+]1CCCC1)c1c2cccc1,-5.908538621,2.5167,388.845
,C7595,KHRKUWZXZWEMKO-UHFFFAOYSA-N,O=C1/C(=C/2\Nc3c(C2=O)cc(cc3)S(=O)(=O)[O-])/Nc2c1cc(cc2)S(=O)(=O)[O-].[Na+].[Na+],-1.668708265,3.0606,466.353
,C37,KHSLHYAUZSPBIU-UHFFFAOYSA-M,c1ccc2c(c1)ccc1c2c2cccc3c2c1ccc3,-8,5.6404,252.309
,C3384,KHWIRCOLWPNBJP-UHFFFAOYSA-N,CC(N1CCCC1)CC12CC3CC(C2)CC(C1)C3.Cl,-4.646960942,4.8171,283.88