Name,Compound ID,InChIKey,SMILES,logS,logP,MW
,C5254,JGWRCGHPVAOURY-UHFFFAOYSA-N,O=C(Cc1ccccc1)N[C@@H]1C(=O)N2[C@@H]1SC([C@@H]2C(=O)O)(C)C,-3.201207559,1.1896,334.39
,C2454,JHBKHLUZVFWLAG-UHFFFAOYSA-N,OCCN1CCN(CC1)CCCN1c2ccccc2Sc2c1cc(Cl)cc2.Cl.Cl,-5.906091965,5.4875,476.891
,C1875,JHCPSTPESOERTA-NKGQWRHHSA-N,CCCCCCCCC=C([NH2+]Cc1ccccc1Cl)[NH2+]Cc1ccccc1Cl.[Cl-].[Cl-],-8.118242683,-0.5796,492.352
,C173,JHEFOJNPLXSWNZ-UHFFFAOYSA-N,Clc1cc(Cl)c(cc1Cl)Cl,-5.5599999,4.3002,215.892
,C4575,JHFYKGNJFTVPPY-UHFFFAOYSA-N,C[NH+]([C@H]1CC[C@H](c2c1cccc2)c1ccccc1)C.[Cl-],-3.678820239,-0.1981,287.827
,C1145,JHIVVAPYMSGYDF-UHFFFAOYSA-N,CC(=O)Nc1ccc(cc1)F,-1.78,1.8571,153.154
,C8486,JHJOOSLFWRRSGU-UHFFFAOYSA-N,CCC(=O)N1C(C)CN(CC1C)C,-0.909459416,0.8232,184.279
,C1469,JHKAMWMWNMZLLS-UHFFFAOYSA-N,O=C1CCCCC1,-0.60000002,1.5196,98.143
,C159,JHNLSXMXTIQPSC-UHFFFAOYSA-M,COP(=S)(Oc1cc(Cl)c(cc1Cl)Cl)OC,-5.7199998,5.1935,321.545
,C2618,JHNRZXQVBKRYKN-VQHVLOKHSA-N,CC(CN(c1cc(ccc1C)C(=O)O)CC(Cl)C)Cl,-5.624637716,3.7542,304.212
,C9902,JHNZJFIWXSOTQM-UHFFFAOYSA-N,C=CC[N+](C)(C)C.[OH-],0.931102034,0.7018,117.189
,C6544,JHOCJIUCBUCJBK-UHFFFAOYSA-N,O/N=C(/c1ccccc1)\C,-2.37560257,1.8848,135.163
,C7044,JHOORYVOLSYYMM-UHFFFAOYSA-N,COc1cccc(c1)N1CCN(CC1)CC1CN=C(O1)N,-2.060857907,0.6695,290.361
,C5721,JHPHVAVFUYTVCL-UHFFFAOYSA-M,OCCN1CCN(CC1)CCSC(=O)N1c2ccccc2Sc2c1cccn2.Cl.Cl,-2.900148916,4.6922,489.482
,C3483,JHRWWRDRBPCWTF-OLQVQODUSA-N,CC(N(C(C)C)CCN1CCCCc2c1cccc2)C,-4.551412022,4.0131,274.444
,C9766,JHUPSALKEOYJJF-UHFFFAOYSA-N,CC(C[N+](C)(C)C)OC(=O)C.[Cl-],0.708438025,-2.3518,195.687
,C186,JHZOXYGFQMROFJ-UHFFFAOYSA-N,ClC(C(SN1C(=O)[C@@H]2[C@H](C1=O)CC=CC2)(Cl)Cl)Cl,-5.4000001,3.4588,349.061
,C7185,JICCKKKVYQHSJY-UHFFFAOYSA-N,CCc1cn(c(n1)[N+](=O)[O-])C,-1.970663286,1.4139,155.155
,C4948,JIEJJGMNDWIGBJ-UHFFFAOYSA-N,O=Cc1cc(Br)cc(c1O)Br,-3.421720322,2.7297,279.913
,C3353,JIEKMACRVQTPRC-UHFFFAOYSA-N,O=C(Nc1c(C)cccc1Cl)OC1CCC[NH+](C1)C(C)C.[Cl-],-4.674392434,1.2988,347.28
,C1288,JIFUOEWLEDAAJC-UHFFFAOYSA-N,CCCOC(C)C,-1.34,1.8214,102.175
,C3114,JIGUQPWFLRLWPJ-UHFFFAOYSA-N,OC(=O)Cc1sc(nc1c1ccc(cc1)Cl)c1ccccc1,-4.964364991,4.7576,329.801
,C2091,JIIBDXZOBVJOSH-KTKRTIGZSA-N,CN(CCN1c2cc(ccc2Sc2c1cccc2)C(C)(C)C)C.Cl,-6.834764233,6.0154,362.96
,C1440,JIIBDXZOBVJOSH-MDZDMXLPSA-N,CCOC(=O)C=C,-0.74000001,0.7355,100.116
,C6164,JIIMOXCAALTCTC-UHFFFAOYSA-N,CNC(=O)/C(=C(\c1ccccc1)/C)/C,-2.616188768,2.6169,189.254
,C6163,JIKBYFBMUAUPJS-UHFFFAOYSA-N,CNC(=O)/C(=C(/c1ccccc1)\C)/C,-2.616188768,2.6169,189.254
,C6148,JILCEWWZTBBOFS-UHFFFAOYSA-N,OCCN(c1nc(nc(n1)N(C)C)N(C)C)C,-2.627267194,-0.5679,240.305
,C2321,JIMXXGFJRDUSRO-UHFFFAOYSA-N,C[NH+](CCON=C1c2ccccc2CCc2c1cccc2)C.[Cl-],-6.171334139,-1.2973,330.852
,C8265,JIOPMQJPYHJGJA-UHFFFAOYSA-N,CNc1c(C)n(n(c1=O)c1ccccc1)C,-1.122159914,1.5991,217.267
,C5847,JIOUJVPLJOQUFD-UHFFFAOYSA-N,OC(=O)C12CC3CC(C2)CC(C1)C3,-2.814958939,2.2874,180.244
,C2136,JIOZHSSMPMWZQB-UHFFFAOYSA-N,CCCCC1=CC(N(C(C1)(C)C)C(=O)CN(Cc1ccccc1)C)(C)C,-6.699645307,4.9624,356.545
,C8247,JIQOPFIEDZPLQT-UHFFFAOYSA-N,CCC(C(=O)NC(=O)N)CC,-1.132883299,1.7087,158.198
,C8108,JIVLDFFWTQYGSR-UHFFFAOYSA-N,O=C(c1ccc2c(c1)OCO2)N1CCOCC1,-1.260919614,0.8256,235.236
,C6345,JIVPVXMEBJLZRO-AWEZNQCLSA-N,CC(N1C(=O)c2ccccc2CS1(=O)=O)C,-2.510866373,2.3993,239.291
,C458,JIVSXRLRGOICGA-UHFFFAOYSA-N,Cc1ccnc2c1ccc1c2nccc1C,-3.97,3.3998,208.258
,C586,JIVZKJJQOZQXQB-UHFFFAOYSA-N,O=C1N[C@](c2c1cccc2)(O)c1ccc(c(c1)S(=O)(=O)N)Cl,-3.45,3.0341,338.766
,C9054,JIWCNPTXYLRLIE-UHFFFAOYSA-N,CN(CCCN1c2ccccc2Sc2c1cccc2)C.Cl,-0.108401287,5.108,320.88
,C6141,JJBCTCGUOQYZHK-UHFFFAOYSA-N,c1ccc(cc1)CC1=NCCN1,-2.633473877,0.9952,160.216
,C7198,JJBRLTIVSDLEJK-UHFFFAOYSA-N,Cc1ccc2c(c1)nc(o2)N,-1.961230582,2.2996,148.162
,C9542,JJCFRYNCJDLXIK-UHFFFAOYSA-N,CC(=O)Oc1ccccc1C(=O)O.NCCCCC(C(=O)O)N,0.486317714,2.238,326.345
,C6349,JJCLUKWQCSNXSQ-UHFFFAOYSA-N,O=C(c1ccccc1)Nc1ncccc1C,-2.505338263,2.7153,212.247
,C2773,JJGAIWGZQREFFO-UHFFFAOYSA-N,CN1CCC(=C2c3ccccc3C=Cc3c2cccc3)CC1,-5.403499984,4.6358,287.398
,C3934,JJIUCEJQJXNMHV-UHFFFAOYSA-N,O=C(C(c1ccccc1)CN1CCCC1(C)C)c1ccccc1.Cl,-4.150819575,5.2674,343.89
,C2449,JJJJNMZRKHIJBC-UHFFFAOYSA-N,N(CC1CCC(CC1)CNCCc1ccccc1)CCc1ccccc1.Cl.Cl,-5.914168845,6.8432,423.462
,C8432,JJLGTRNWSYAQKN-UHFFFAOYSA-N,CCOP(=O)(SCCN(C(C)C)C(C)C)C,-0.949988189,3.6978,267.368
,C3503,JJVQCNOKKOBJRQ-UHFFFAOYSA-N,c1ccc(cc1)C(c1ccccc1)CCN1CCN(CC1)c1cccnn1,-4.537442507,3.8237,358.479
,C4462,JJVUBVYJJVCKSL-UHFFFAOYSA-N,CC(C(c1ccccc1)(c1ccccc1)C#N)C[NH+](C)C.[Cl-],-3.756174262,-0.71912,314.852
,C6341,JJVXIAKMZKNEBD-UHFFFAOYSA-N,COc1cc(ccc1O)C(C(NC(COc1ccccc1)C)C)O.Cl,-2.512615929,4.0727,367.867
,C8211,JJWKNGOUNQRAIP-UHFFFAOYSA-N,CN(C1CC(=C(c2c1cccc2)c1ccccc1)S(=O)(=O)O)C,-1.173349779,4.421,329.413
,C5481,JJXPTUWJVQUHKN-UHFFFAOYSA-N,CC(C(COC(=O)N)(COC(=O)NC(C)C)C)C,-3.050042923,2.9698,260.33
,C1910,JJYCENBZIMIWTM-HYFMXHDLSA-N,BrCCN(c1ccc(cc1)OC(=O)c1ccc(cc1)C(F)(F)F)CCBr,-7.808232024,5.5208,495.128
,C6327,JJYPMNFTHPTTDI-UHFFFAOYSA-N,COc1ccc2c(c1)cco2,-2.519455887,2.4414,148.159
,C2571,JKBZITVKMZPLJW-UHFFFAOYSA-N,CO[C@@H]1[C@@H](OC(=O)N)[C@@H](O)[C@H](OC1(C)C)Oc1ccc2c(c1C)oc(=O)c(c2O)NC(=O)c1ccc(c(c1)CCC(C)C)O,-5.713079518,4.4803,614.64
,C1407,JKEQJSXVKIBVBU-UHFFFAOYSA-N,Cc1cccc(c1)N,-0.85000002,2.1584,107.153
,C5239,JKESDNYEZGICTN-UHFFFAOYSA-N,CN(CCc1ccc(c(c1)OC1CCCCC1)O)C,-3.213758583,3.2078,263.375
,C5532,JKHRRGNPYDEKGJ-UHFFFAOYSA-N,Oc1cccc(c1)C(=O)OCCCN1CCCCC1C,-3.019804234,2.7514,277.359
,C2392,JKJVFVAYXDTCRD-MDZDMXLPSA-N,N#CC(c1cccc2c1cccc2)(CC=C(C)C)CCN1CCCC1.Cl,-6.035487432,6.18328,368.943
,C6844,JKLZCQWVERBDEZ-UHFFFAOYSA-N,CC(CC(C)(C)C)CCNCCSS(=O)(=O)O,-2.180627209,4.0461,283.451
,C5616,JKLZHNLMWBDPJY-UHFFFAOYSA-N,CN(/N=N/c1cccc(c1)[N+](=O)[O-])C,-2.966223369,2.6783,194.191
,C9486,JKNCOURZONDCGV-UHFFFAOYSA-N,O=C1CSC(=S)N1C,0.401436567,0.4144,147.219
,C3693,JKOQGQFVAUAYPM-UHFFFAOYSA-N,CCCOC(=O)c1c(C)ccc(c1OCCN(C)C)C(C)C,-4.354212973,3.6256,307.428
,C9012,JKPNBDINHLNEKN-UHFFFAOYSA-N,CN(CCOC(=O)C(=C)C)C,-0.170773071,0.6673,157.21
,C9721,JKPYCJKJEBIDIG-UHFFFAOYSA-N,NCCCNCCSP(=O)(O)O,0.669139985,0.8419,214.223
,C6275,JKRRVZFDRHWMMB-UHFFFAOYSA-N,COc1ccc(cc1)CCCCNCCCSS(=O)(=O)O,-2.551305457,4.0053,333.467
,C4626,JKZHBDBZNPVEOX-UHFFFAOYSA-M,COc1ccccc1C1SCCS1,-3.654903275,3.1738,212.332
,C2863,JLBDOSAQLCZTSX-UHFFFAOYSA-N,FCCCCCCCCCCCl,-5.272372761,4.3155,194.717
,C8952,JLDCNMJPBBKAHH-UHFFFAOYSA-N,COc1ccc(cc1C(C[N+](C)(C)C)(O)C)OC.[Cl-],-0.300730364,-1.3785,289.798
,C4261,JLEGDNVOQSBHTR-UHFFFAOYSA-N,O=C(c1ccccc1)c1cccc(c1)NS(=O)(=O)C(F)F,-3.912714536,4.0357,311.304
,C8394,JLEHSYHLHLHPAL-UHFFFAOYSA-N,Nc1ccc(cc1)S(=O)(=O)[N-]c1ncccn1.[Na+],-0.98627433,3.1149,272.259
,C5444,JLEMBEDQJILISF-UHFFFAOYSA-N,[O-][N+](=O)c1cccc(c1)P(=O)(c1cccc(c1)[N+](=O)[O-])O,-3.070511615,2.7706,308.183
,C8654,JLFNLZLINWHATN-UHFFFAOYSA-N,NC(=O)NC(C)(C)C,-0.730617807,1.5444,116.162
,C6344,JLHPIYCYMLXDIC-UHFFFAOYSA-N,C=CCn1c(C)c(N(C)C)c(=O)n(c1=O)c1ccccc1,-2.51108806,1.5596,285.341
,C9661,JLIDBLDQVAYHNE-YKALOCIXSA-N,OCCOCCOCCOCCOCCO,0.622912409,-0.9626,238.278
,C7235,JLKIGFTWXXRPMT-UHFFFAOYSA-N,Cc1ccnc(c1)OCCCCCNCCSS(=O)(=O)O,-1.932153157,3.5364,334.455
,C6216,JLRGJRBPOGGCBT-UHFFFAOYSA-N,OC(=O)/C=C(\C=C\[C@@]1(O)C(=CC(=O)CC1(C)C)C)/C,-2.587838173,2.2499,264.317
,C843,JLRNKCZRCMIVKA-UHFFFAOYSA-N,Nc1ccc(cc1)S(=O)(=O)Nc1noc(c1)C,-2.6199999,3.101,253.278
,C600,JLRWNBXMQCGSEJ-APBURCQWSA-N,CCCCNC(=O)NS(=O)(=O)c1ccc(cc1)C,-3.3900001,3.6456,270.348
,C1993,JLTDJTHDQAWBAV-UHFFFAOYSA-N,O=C(C(Oc1ccc(cc1)Cl)(C)C)OCCCOC(=O)C(Oc1ccc(cc1)Cl)(C)C,-7.182668824,5.4849,469.355
,C7298,JLTVLLBWSZPXFN-UHFFFAOYSA-N,O[C@H]([C@H](C(=O)O)O)C(=O)O.COc1c(OC)cc2c(c1OC)c1ccc(c(=O)cc1[C@H](CC2)N)OC,-1.889851452,1.2719,507.487
,C1099,JLUQTCXCAFSSLD-UHFFFAOYSA-N,CN(c1ccccc1)C,-1.92,1.7526,121.18
,C5989,JLVSRWOIZZXQAD-UHFFFAOYSA-N,CCN(CCC1(c2ccccc2)C(=O)Oc2c1cccc2)CC.Cl,-2.72599577,4.4256,345.863
,C8864,JLYXXMFPNIAWKQ-CDRYSYESSA-N,O=C1C=CC2(O1)CCC12C=CC(=O)O1,-0.427863685,0.4838,192.168
,C9775,JLZFHSUCCKFWTD-UHFFFAOYSA-N,SCC(CS(=O)(=O)O)S,0.72520965,1.1832,188.289
,C333,JLZIDTSPQVEYJQ-UHFFFAOYSA-N,Cl[C@@H]1[C@@H](Cl)[C@H](Cl)[C@H]([C@@H]([C@H]1Cl)Cl)Cl,-4.5100002,3.6444,290.83
,C3615,JMBQKKAJIKAWKF-CYBMUJFWSA-N,CC[NH+](CC(c1ccc2c(c1)c1ccccc1o2)O)CC.[Cl-],-4.422132483,-0.4519,319.826
,C2283,JMBQKKAJIKAWKF-UHFFFAOYSA-N,SCCNCCCCCCCCCCOc1ccc(cn1)Br.Cl,-6.26190481,6.056,425.855
,C952,JMEJOUCPQDFPFK-UHFFFAOYSA-N,CC[C@@]1(CCC(=O)NC1=O)c1ccccc1,-2.3399999,2.0998,217.264
,C6612,JMHSMFKQKRUZBH-UHFFFAOYSA-N,CCC1(CCC(=O)NC1=O)c1ccccc1,-2.337430298,2.0998,217.264
,C7199,JMIJJGDVIKZQQA-UHFFFAOYSA-L,N#CN/C(=N/c1ccc(cc1)Cl)/N,-1.960812305,2.44808,194.621
,C3339,JMLWXCJXOYDXRN-UHFFFAOYSA-N,CCCN1CCC(CC1)OC(=O)Nc1c(C)cccc1Cl,-4.689054621,4.0822,310.819
,C9300,JMMWKPVZQRWMSS-UHFFFAOYSA-N,C[N+](CCCCCCc1ccc(cc1)[N+](C)(C)C)(C)C.[I-].[I-],0.273849221,-2.2996,532.285
,C562,JMNQTHQLNRILMH-OBBGIPBRSA-N,Clc1cccc(c1)I,-3.55,2.9446,238.453
,C1477,JMOLZNNXZPAGBH-UHFFFAOYSA-N,CC(OC(=O)C)C,-0.55000001,0.9579,102.132
,C4436,JMPFSEBWVLAJKM-UHFFFAOYSA-N,O[C@H]1CC[C@]2([C@](C1)(O)CC[C@@H]1[C@@H]2CC[C@]2([C@]31O[C@@H]3C[C@@H]2c1ccc(=O)oc1)C)C,-3.773315024,3.3732,400.508
,C2375,JMTNOKRGERWNME-UHFFFAOYSA-L,CCCCCCCCC(C(=O)O)CCCCCC,-6.075320059,5.4082,256.424
,C1757,JMTRFDQKURLOMK-UHFFFAOYSA-L,N#CC(c1cc(C)c(cc1Cl)NC(=O)c1cc(I)cc(c1O)I)c1ccc(cc1)Cl,-10.3473464,7.19738,663.074
,C2097,JMUDZEPANZIPCH-UHFFFAOYSA-N,CC1CCCC(C1CCC([N+](CCCCCC[N+](C(CCC1C(C)CCCC1(C)C)C)(C)C)(C)C)C)(C)C.[Cl-].[Cl-],-6.818048442,3.9698,605.892
,C9488,JMYUWUORMAYJLT-UHFFFAOYSA-N,CC[N+](CCSCC[N+](CC)(C)C)(C)C.[Br-].[Br-],0.404223892,-4.0798,394.253
,C3210,JNCLSNBVQMUCGR-UHFFFAOYSA-N,COc1ccc(cc1)C(CC(=O)c1ccccc1)NCc1ccccc1.Cl,-4.861790344,5.992,381.895
,C4002,JNGIYILIWDVASL-UHFFFAOYSA-N,Ic1ccc(nc1)OCCCCCN1CSCC1.Cl,-4.10856294,3.9815,414.733
,C7765,JNGWGQUYLVSFND-UHFFFAOYSA-N,CCCCCC([NH2+]C)C.[Cl-],-1.550949696,-1.8476,165.704
,C9178,JNLHPPFPJXHLKE-UHFFFAOYSA-N,CN(CCOC(=O)c1cccnc1)C,0.102609875,0.8,194.23
,C7895,JNMNEKBPYOEAJS-UHFFFAOYSA-N,O=C1NC(=O)NC1(C)c1ccccc1,-1.459671144,1.3988,190.199
,C5067,JNMRHUJNCSQMMB-UHFFFAOYSA-N,COC(=O)c1c(C)ccc(c1OCC(CNC(C)C)O)C(C)C,-3.333693083,3.0336,323.427
,C8794,JNOZNCBBHYHMBY-UHFFFAOYSA-N,CN(c1n[nH]c(cc1=O)C)C,-0.524161156,0.1443,153.182
,C911,JNTMAZFVYNDPLB-PEDHHIEDSA-N,Nc1ccc(cc1)S(=O)(=O)Nc1nccs1,-2.4300001,3.2611,255.317
,C8457,JNTPTNNCGDAGEJ-UHFFFAOYSA-N,CC1=CCCC(N1C)(C)C,-0.936944377,2.3323,139.238
,C6258,JNULUVOGRXVBJY-UHFFFAOYSA-N,CC[C@@H]([C@@H](C(=O)O)NC(=O)[C@@H]1CCCN1C(=O)[C@H]([C@H](CC)C)N)C,-2.560664069,1.9954,341.446
,C7891,JNUQEHHAXSHUMD-WVLIHFOGSA-M,OCCCCCCCl,-1.462490195,1.7779,136.62
,C3860,JNXAZWXNARKBOA-UHFFFAOYSA-N,CCN(CCNc1nc(NCCN(CC)CC)nc(n1)NCCN(CC)CC)CC.Cl.Cl.Cl,-4.196550341,4.7577,533.025
,C2684,JOATXPAWOHTVSZ-UHFFFAOYSA-N,CCCC(=O)Nc1c(I)cc(c(c1I)/C=C(/C(=O)[O-])\CC)I.[Na+],-5.523092553,3.8553,660.988
,C6634,JOBYFSLGKZGUKV-UHFFFAOYSA-N,CN1C2CCC1CN(C2)C(=O)c1ccccc1[N+](=O)[O-],-2.325875495,1.9124,275.303
,C4700,JODMGWMPQPXDHV-UHFFFAOYSA-N,CCN(C(=O)Nc1ccc(c(c1)C(=O)C)OCC(CNC(C)(C)C)O)CC,-3.606454852,3.3546,379.494
,C2995,JOFVJGBNXDXSEO-UHFFFAOYSA-N,Cc1ccc(cc1)NC(=O)c1ccccc1N(C(=O)CN1CCCCC1)C,-5.11415372,3.7069,365.469
,C3111,JOFWLTCLBGQGBO-UHFFFAOYSA-N,CN1C2CCC1CC(C2)OC(=O)C(=C)c1ccc(cc1)C(F)(F)F.CN1C2CCC1CC(C2)OC(=O)C(=C)c1ccc(cc1)C(F)(F)F.CN1C2CCC1CC(C2)OC(=O)C(=C)c1ccc(cc1)C(F)(F)F.CN1C2CCC1CC(C2)OC(=O)C(=C)c1ccc(cc1)C(F)(F)F.O,-4.971126841,15.2353,1375.42
,C4582,JOHZPMXAZQZXHR-UHFFFAOYSA-N,CCOC(=O)NCC(CNC(=O)OCC)(CC)CC,-3.674894368,3.0668,274.357
,C436,JOLPMPPNHIACPD-ZZXKWVIFSA-N,Clc1ccc2c(c1)C(=NCc1n2c(C)nn1)c1ccccc1Cl,-4.0799999,3.6691,343.21
,C728,JOMNTHCQHJPVAZ-YFKPBYRVSA-N,CCn1cc(C(=O)O)c(=O)c2c1nc(nc2)N1CCNCC1,-2.98,0.313,303.316
,C8396,JOOPFYJWVJXNHM-UHFFFAOYSA-N,OC(=O)/C=C/c1ccc(cc1)N,-0.982207335,1.9478,163.173
,C1626,JOVOSQBPPZZESK-UHFFFAOYSA-N,C[C@H]1CNCCN1,0.74000001,0.2253,100.162
,C3187,JOYRKODLDBILNP-UHFFFAOYSA-N,Brc1c(C)c(O)c(c(c1O)Br)Br,-4.880605418,3.6937,360.825
,C9484,JOZZAIIGWFLONA-UHFFFAOYSA-N,NNc1ccccc1.Cl,0.397933972,2.5475,144.602
,C1634,JPBLHOJFMBOCAF-UHFFFAOYSA-N,CCOC(=O)N,0.85000002,0.8019,89.0932
,C9195,JPEOONAIYXUZTI-UHFFFAOYSA-L,CC(C(C)C)N,0.125605863,1.6899,87.1634
,C7857,JPFWJDMDPLEUBD-ITJAGOAWSA-N,Nc1nc2c(o1)cccc2,-1.487169782,1.9912,134.135
,C1799,JPFYIYQIGQYIMC-UHFFFAOYSA-N,CC[N+](CCN1c2ccccc2Sc2c1cccc2)(CCCCCC[N+](CCN1c2ccccc2Sc2c1cccc2)(CC)CC)CC.[Br-].[Br-],-9.236306986,5.0038,840.859
,C9311,JPGUEMQIAGJQSJ-UHFFFAOYSA-N,NC(=O)OC[C@@H]([C@H]([C@@H](C(=O)N[C@@H]([C@H]1O[C@H]([C@@H]([C@@H]1O)O)n1cc(C(=O)O)c(=O)[nH]c1=O)C(=O)O)N)O)O,0.282835612,-4.6407,521.39
,C8695,JPIYZTWMUGTEHX-UHFFFAOYSA-N,ClCCN1CCN(CC1)CCCl,-0.684068511,0.9574,211.132
,C4081,JPJWFNHMOPQSBQ-UHFFFAOYSA-N,CC(=O)Oc1ccc(cc1)C1(c2ccc(cc2)OC(=O)C)C(=O)N(c2c1cccc2)C(=O)C,-4.058017821,3.8297,443.448
,C4541,JPKQTZQKHUBTAW-UHFFFAOYSA-N,CN(c1ccc(cc1)C(=N)c1ccc(cc1)N(C)C)C,-3.698444071,3.3345,267.369
,C8867,JPMIIZHYYWMHDT-UHFFFAOYSA-N,CN(c1ccc(cc1)C)C(=O)N,-0.423002596,2.2102,164.204
,C4825,JPMXRTULSFBSIT-UHFFFAOYSA-O,CN(C1=Nc2ccc(cc2N(C(=O)C1)c1ccccc1)C(F)(F)F)C,-3.523722711,3.866,347.334
,C6144,JPNGOBZOWYGRFR-BTJKTKAUSA-N,CCCCCCCCn1sccc1=O,-2.630100251,3.2703,213.34
,C5984,JPOPEORRMSDUIP-UHFFFAOYSA-N,CC1Oc2ccc(cc2N(C1=O)CCC[NH+](C)C)Cl.Cl,-2.729493123,1.8555,320.235
,C2223,JPOXNPPZZKNXOV-UHFFFAOYSA-N,CN1CCN(CC1)C1Cc2ccccc2Sc2c1cccc2Br.OC(=O)/C=C\C(=O)O,-6.42035721,4.0325,505.425
,C6,JPPQVFOALJMRFH-UHFFFAOYSA-N,Clc1c(Cl)cc(c(c1c1c(Cl)c(Cl)cc(c1Cl)Cl)Cl)Cl,-9.1499996,8.5808,429.768
,C1395,JPVKCHIPRSQDKL-UHFFFAOYSA-N,ClCBr,-0.88999999,1.5776,129.384
,C2305,JPXZQMKKFWMMGK-KQYNXXCUSA-N,Clc1ccc(nc1)SCCCCCCCCCCN1CSCC1.Cl.Cl,-6.202108649,7.4961,445.941
,C9041,JPYQFYIEOUVJDU-UHFFFAOYSA-N,Nc1cccc(c1)S(=O)(=O)N,-0.133261576,2.2785,172.205
,C7804,JQIBJYGPKFIOHE-UHFFFAOYSA-N,O[C@@H]1[C@@H](COP(=O)(OP(=O)(O)O)O)O[C@H]([C@@H]1O)n1cnc2c1[nH]cnc2=O,-1.524423518,-2.0349,428.186
,C5124,JQIYNMYZKRGDFK-RUFWAXPRSA-N,ClCCC(=O)NCc1ccccc1,-3.295923185,2.3226,197.661
,C8103,JQKHJQJVKRFMCO-SNAWJCMRSA-N,CCC1(CC)NCCS1,-1.268396267,2.1679,145.266
,C2012,JQUKCPUPFALELS-UHFFFAOYSA-N,CCC(=O)Oc1ccc2c(c1)CC[C@@H]1[C@@H]2CC[C@]2([C@H]1CC[C@@H]2OC(=O)CC)C,-7.133127969,5.1799,384.508
,C6267,JQVBVDFCXFLBPV-UHFFFAOYSA-M,OCc1cccc(n1)/C=C/c1ccc(o1)[N+](=O)[O-],-2.556461275,2.7687,246.219
,C6569,JQVDAXLFBXTEQA-UHFFFAOYSA-N,COc1cc(ccc1c1nc2c([nH]1)cncc2)S(=O)C,-2.363222217,3.2366,287.337
,C8802,JQYLYGFSUFDCGW-UHFFFAOYSA-L,O=C(Cc1ccccc1)Oc1cccc(c1)[N+](C)(C)C.[Br-],-0.510961841,0.0354,350.25
,C1257,JRBPAEWTRLWTQC-UHFFFAOYSA-N,CCCCNCCCC,-1.4400001,2.5671,129.243
,C8850,JRFKIOFLCXKVOT-UHFFFAOYSA-N,CC[N+](CCCNc1nc(NCCC[N+](CC)(CC)CC)nc(n1)Cl)(CC)CC.[I-].[I-],-0.444051775,-1.964,683.883
,C5015,JRGGUPZKKTVKOV-UHFFFAOYSA-N,CCCCCCCCCCCCN,-3.375909703,4.5663,185.349
,C9569,JRIGVWDKYXCHMG-UHFFFAOYSA-N,OCNC(=O)c1cccnc1,0.534807205,0.1521,152.151
,C655,JRLMMJNORORYPO-UHFFFAOYSA-N,Clc1cccc(c1)Br,-3.21,3.1025,191.453
,C9663,JRLPEMVDPFPYPJ-UHFFFAOYSA-N,O=[As]c1ccc(c(c1)N)O.Cl,0.628010951,1.0326,235.5
,C6288,JROGBPMEKVAPEH-GXGBFOEMSA-N,S=c1[nH][nH]c(n1)c1ccccc1,-2.540104109,2.1343,177.226
,C690,JRRNZNSGDSFFIR-UHFFFAOYSA-M,CCc1ccc(cc1)C,-3.1099999,2.5574,120.192
,C8793,JRTCJQVKTRTCOO-LVEZLNDCSA-N,CC[C@H]1CN2CCc3c([C@@H]2C[C@@H]1C[C@H]1NCCc2c1cc(OC)c(c2)OC)cc(c(c3)OC)OC.Cl.Cl,-0.52489577,6.8141,553.561
,C7542,JRWQAQZBEVDDQC-UHFFFAOYSA-N,O=C(C(c1ccccc1)(c1ccccc1)O)OC1CCC[N+](C1)(C)C.[Br-],-1.713036883,-0.3327,420.34
,C2115,JRWUFQJVJGKCCT-UHFFFAOYSA-N,OC(=O)/C=C/C(=O)O.OC(=O)/C=C/C(=O)O.CCCNC(=O)CN1CCN(CC1)CC1COC2(O1)c1ccccc1C=Cc1c2cccc1,-6.767873989,2.621,679.714
,C7057,JRZJOMJEPLMPRA-UHFFFAOYSA-N,Clc1ccc(cc1)N1C(=S)SCC1=O,-2.05648276,2.7697,243.733
,C4722,JSDOMRGYHWMEOM-UHFFFAOYSA-N,N#CC(c1ccccc1)CC(=O)c1ccccc1,-3.591278774,3.56678,235.281
,C233,JSGVYZIZTZNDHK-UHFFFAOYSA-N,CCCCCCCC=C,-5.0500002,3.5329,126.239
,C3507,JSIPUEXTEYSZGQ-UHFFFAOYSA-N,CCCCCOc1ccc(cc1)C(=O)CCN1CCCCC1.Cl,-4.533969878,5.0542,339.9
,C9722,JSNIFGPPGAINSG-UHFFFAOYSA-N,NCCNCCCSP(=O)(O)O,0.669139985,0.8419,214.223
,C5962,JSNKIZGODRFYMM-UHFFFAOYSA-N,COc1cc(cc(c1OC)OC)C(=O)Nc1ncccc1C,-2.743288587,2.7411,302.325
,C4016,JSPCTNUQYWIIOT-UHFFFAOYSA-N,Clc1[nH]c2c(n1)n(C)c(=O)n(c2=O)C.CN1CCC(CC1)OC(c1ccccc1)c1ccccc1,-4.102202614,3.4384,496.001
,C6487,JSRLURSZEMLAFO-UHFFFAOYSA-N,[S-]C(=S)Nc1ccccc1.[NH4+],-2.421387173,2.3795,186.298
,C8778,JSSDFKSULXLETE-UHFFFAOYSA-N,NC(=O)N1CCCCC1,-0.549094756,1.1892,128.172
,C563,JSSSGAGHEPXNMV-UHFFFAOYSA-N,Brc1cccc(c1)Br,-3.54,3.2116,235.904
,C7455,JSSWZBFMFUYUKD-UHFFFAOYSA-N,CC(CC/N=C(/CSS(=O)(=O)O)\N)C,-1.77122442,2.7068,240.344
,C7411,JSTCPNFNKICNNO-UHFFFAOYSA-N,Nc1ccc(cc1)C(=O)Nc1cccnc1.Cl,-1.811954334,3.3723,249.696
,C3099,JSZILQVIPPROJI-UHFFFAOYSA-N,OC(=O)C(=O)[O-].COc1ccc2c(c1)n(CCC[NH+](C)C)c1c2cccc1,-4.990109175,0.1586,372.415
,C7775,JSZOAYXJRCEYSX-UHFFFAOYSA-N,O=Nc1ccc(cc1)O,-1.546228815,1.7901,123.109
,C4390,JTBZLAOQMGNIPU-UHFFFAOYSA-N,CCN(C(=O)C1CN2CCc3c(C2CC1OC(=O)C)cc(c(c3)OC)OC)CC,-3.813834431,2.3609,404.5
,C1426,JTEJPPKMYBDEMY-UHFFFAOYSA-N,[O-][N+](=O)CCC,-0.80000001,1.1963,89.0932
,C7431,JTGITTDWIRWXDN-UHFFFAOYSA-N,CN(C(C(C)(C)C)(C)C)C.Br,-1.793101286,3.3308,224.182
,C8125,JTGMTYWYUZDRBK-UHFFFAOYSA-N,NCCc1c[nH]c2c1cc(OC)cc2,-1.247099831,2.378,190.242
,C8683,JTHNLKXLWOXOQK-UHFFFAOYSA-N,COc1ccccc1N1C(=O)C2C(C1=O)C1OC2CC1,-0.695468948,1.427,273.284
,C104,JTIGKVIOEQASGT-UHFFFAOYSA-N,Cc1c2ccccc2c(c2c1cccc2)C,-6.5700002,4.6098,206.282
,C1416,JTJMJGYZQZDUJJ-UHFFFAOYSA-N,CCCC(=O)C=C,-0.82999998,1.5416,98.143
,C3992,JTLNSLROLLWUCQ-UHFFFAOYSA-N,Cc1ccc2c(c1)n(C(C)C)c(=O)nc2c1ccccc1,-4.115404627,3.9528,278.348
,C4239,JTLXCMOFVBXEKD-FOWTUZBSSA-N,C1CCC(CC1)(N1CCCCC1)c1ccccc1,-3.933450532,4.2698,243.387
,C6066,JTNZXOJENVIQTO-UHFFFAOYSA-N,CN(CCCC1=CC(N(C(C1)(C)C)C)(C)C)C,-2.674910344,3.0852,238.412
,C5762,JTPNRXUCIXHOKM-UHFFFAOYSA-N,OCC/C(=C(\N(Cc1cnc(nc1N)C)C=O)/C)/SSCC1CCCO1,-2.873663245,3.717,398.543
,C3222,JTPUMZTWMWIVPA-UHFFFAOYSA-O,CN(CCCOC(=O)COc1c(ccc(c1C(=O)OC(C)C)C)C(C)C)C,-4.844408529,3.5573,379.49
,C467,JTRRMFTWVJSBAA-UHFFFAOYSA-N,Clc1cccc2c1cccc2,-3.9300001,3.4932,162.616
,C5893,JTRXPPVLPJRQIF-UHFFFAOYSA-N,CC([N+](C(C)C)(CCC(c1ccccc1)(c1ccccc1)C(=O)N)C)C,-2.783503289,4.8118,353.521
,C5890,JTTAUPUMOLRVRA-UHFFFAOYSA-N,CN1CCN=C1Nc1ncc(s1)[N+](=O)[O-],-2.785478931,0.7343,227.244
,C6875,JTUSORDQZVOEAZ-UHFFFAOYSA-N,Clc1ccc(nc1)OCCCCCNCCSS(=O)(=O)O,-2.164455682,3.8814,354.873
,C5231,JTVVOOSCIQPAQH-UHFFFAOYSA-N,CN(CCCN1c2ccccc2Sc2c1nccc2)C,-3.218678564,3.701,285.407
,C74,JTYLHYOCBGPMNO-UHFFFAOYSA-N,Clc1cc(Cl)c(cc1c1cccc(c1Cl)Cl)Cl,-7.21,6.6206,326.433
,C6779,JTZZMXVIHNHASS-UHFFFAOYSA-N,CC(=O)Oc1c(cccc1c1ccccc1)C(=O)N,-2.228027918,3.0781,255.269
,C8501,JUBAFYPBMDLOSF-UHFFFAOYSA-N,NN(c1ccccc1)Cc1ccccc1.Cl,-0.896346803,4.0692,234.725
,C6237,JUEVZYGVJAVKRY-UHFFFAOYSA-N,OC(=O)CC(c1ccccc1)(C)C,-2.569199477,2.4389,178.228
,C7489,JUFUNKWZCPPHFF-UHFFFAOYSA-N,ClCCN(CC(=O)O)CCCl.Cl,-1.743434487,1.6526,236.524
,C9390,JUGOREOARAHOCO-UHFFFAOYSA-M,C[n+]1ccc(cc1)c1c[nH]c(c1)C.[I-],0.332231481,-1.1814,300.139
,C3622,JUIHCCIFJCSFON-UHFFFAOYSA-N,O=C(Nc1c(C)cccc1C)OC1CC[NH+](C1)C(C)(C)C.[Cl-],-4.413997861,0.9538,326.861
,C9798,JUIQOABNSLTJSW-UHFFFAOYSA-N,CC(=O)OCC[N+](C)(C)C.[Cl-],0.74074069,-2.7403,181.66
,C5899,JUIYSFPOULFJDP-UHFFFAOYSA-N,O=C1CC(C(=O)N1c1ccc(cc1Cl)S(=O)(=O)N)c1ccccc1,-2.777009859,3.8806,364.803
,C6902,JUJWROOIHBZHMG-UHFFFAOYSA-N,CC1=NCCS1,-2.149277499,0.5872,101.17
,C2957,JULCZKIUTDDDRV-UHFFFAOYSA-N,CCCCCCCSCCCCCCN1CCSC1.Cl,-5.153112936,5.9966,340.031
,C1628,JUMYIBMBTDDLNG-UHFFFAOYSA-N,c1cccnc1,0.75999999,1.0816,79.0999
,C2933,JUOZATSMKDYYGH-UHFFFAOYSA-N,C[NH+]1CCC(CC1)OC(=O)C1c2ccccc2c2c1cccc2.[Cl-],-5.186122286,0.5924,343.847
,C7861,JURKNVYFZMSNLP-UHFFFAOYSA-N,COC(=O)C(c1ccccc1)C1CCCCN1.Cl,-1.484048787,3.2161,269.767
,C3459,JUSNIEPCJNWQRR-UHFFFAOYSA-N,CN(CCOC(c1ccc(cc1)Br)(c1ccccc1)C)C.Cl,-4.576569426,5.0928,384.738
,C2775,JUVIOZPCNVVQFO-NDXORKPFSA-N,CN(CC/C=C/1\c2ccccc2C=Cc2c1cccc2)C,-5.401335873,4.5538,275.387
,C2540,JUWVRBZHGIMTGG-UHFFFAOYSA-N,C1CCCCN(C1)CC1CCC(CC1)CN1CCCCCC1.Cl.Cl,-5.752436627,6.0246,379.451
,C354,JVDCYRUTPUMLMD-UHFFFAOYSA-N,COc1cc2c(cc1OC)OC[C@H]1[C@H]2C(=O)c2c(O1)c1C[C@H](Oc1cc2)C(=C)C,-4.4200001,3.7033,394.417