Name,Compound ID,InChIKey,SMILES,logS,logP,MW
,C9256,XGEGHDBEHXKFPX-UHFFFAOYSA-N,C[N+]1(C)CCN(CC1)c1ccccc1.[I-],0.219931018,-1.3892,318.197
,C834,XGFHLWWVVDNLGA-UHFFFAOYSA-N,Clc1ccc(c(c1Cl)O)Cl,-2.6400001,3.3524,197.446
,C1661,XGGVMZAOGRFJIR-UHFFFAOYSA-N,CNC(=O)N,1.13,0.3757,74.0818
,C5739,XGJBEXXFJLMBJT-UHFFFAOYSA-N,CCN(C(=O)CN1C(C)(C)CCC1(C)C)CC,-2.888157833,2.4457,240.385
,C3581,XGLHJEZLNGXEAZ-UHFFFAOYSA-N,CCCN1CCC(CC1)OC(=O)Nc1c(C)cccc1C,-4.458685722,3.7372,290.401
,C4292,XGLHYBVJPSZXIF-UHFFFAOYSA-N,CCC[NH+](C(CCC)CCC)CCC.[Cl-],-3.88406675,-0.3359,235.837
,C6346,XGMDBMXEIAXDGE-UHFFFAOYSA-N,Cn1c(=S)[nH]nc1c1ccccc1,-2.510753974,2.1447,191.253
,C7324,XGMPVBXKDAHORN-NEUNXDCKSA-N,CCC(c1ccccc1)(O)C,-1.869234582,2.3041,150.218
,C5662,XGMPVBXKDAHORN-RBWIMXSLSA-N,CN1CCc2c(C1)cccc2NC(=O)c1ccccc1,-2.938304526,2.9377,266.338
,C423,XGOMGJMAAOSFKF-UHFFFAOYSA-N,CC(=O)O[C@@H]1C[C@@H]2[C@]([C@@]1(O)C(=O)COC(=O)C)(C)C[C@H]([C@]1([C@H]2CCC2=CC(=O)C=C[C@]12C)F)O,-4.1300001,1.7621,478.507
,C3964,XGPFPXALZVOKRI-UHFFFAOYSA-N,CC(=O)O[C@@H]1C[C@@H]2[C@]([C@@]1(O)C(=O)COC(=O)C)(C)C[C@@H]([C@]1([C@H]2CCC2=CC(=O)C=C[C@]12C)F)O,-4.129665388,1.7621,478.507
,C5615,XGRPZMQMSBNEOX-UHFFFAOYSA-N,Nc1ccc2c(c1)nc1c(c2)cc(cc1)S(=O)(=O)N,-2.968308192,3.9799,273.31
,C7015,XGUUCCVRACSUAD-UHFFFAOYSA-M,S=C1NC(C(=O)N1c1ccccc1)C,-2.08142522,1.69,206.264
,C9013,XGVJWXAYKUHDOO-DANNLKNASA-N,C[NH2+]CC(c1cc(OC)ccc1OC)O.[Cl-],-0.168650019,-3.0656,247.719
,C7485,XGWFJBFNAQHLEF-UHFFFAOYSA-N,C=CCC1(CC=C)C(=O)[N-]C(=O)NC1=O.[Na+],-1.74510311,0.9344,230.196
,C6167,XGWXRNKYSJHAJB-UHFFFAOYSA-N,O[C@H]1C=C2CCN3[C@H]2[C@@H]([C@@H]1O)c1cc2OCOc2cc1C3,-2.613074174,0.6865,287.31
,C4955,XGXDBLPZUSKNSA-SCZZXKLOSA-N,OC(=O)c1c2ccccc2cc2c1cccc2,-3.417409165,3.6912,222.239
,C2065,XGYICSXQOIEICF-UHFFFAOYSA-N,CSc1ccccc1CNCC1CCC(CC1)CNCc1ccccc1SC.Cl.Cl,-6.936772123,8.202,487.592
,C8313,XGZAZJYPRJGHIG-UHFFFAOYSA-N,C[C@@H]1C[C@@H](C(=O)N1c1ccccc1)N,-1.083415882,1.9044,190.242
,C8264,XGZPRABQSGUFBL-UHFFFAOYSA-N,O=c1[nH]c2c(o1)cc(c(c2)Cl)N,-1.123167465,1.9379,184.58
,C7084,XGZVUEUWXADBQD-UHFFFAOYSA-L,Nc1ccc(cc1)S(=O)(=O)[N-]c1onc(c1C)C.[Na+],-2.046352567,3.9297,289.286
,C7296,XHCLBSGALFHVFS-UHFFFAOYSA-N,CNC(CC1CCCC1)C.Cl,-1.891791683,3.3675,177.715
,C8638,XHDRCKHCSHZSMF-UHFFFAOYSA-N,[O-]C(=O)[O-].[Li+].[Li+],-0.754630559,-2.447,73.8909
,C7664,XHJDNCYZCCVDGQ-UHFFFAOYSA-N,COc1cc(ccc1C)CC(N)C.Cl,-1.617054681,3.3956,215.72
,C3824,XHKUDCCTVQUHJQ-LCYSNFERSA-N,CNC(CC12CC3CC(C1)CC(C2Br)C3)C.Cl,-4.230065551,4.7671,322.712
,C7301,XHMIIRLZSKEDPY-UHFFFAOYSA-N,CCN(C(CC)(CC)C)C.Br,-1.88821049,3.4749,224.182
,C8900,XHOJAWVAWFHGHL-UHFFFAOYSA-N,OC[C@H]([C@H]([C@@H]([C@H](C(=O)O)O)O)O)O.C=C[C@H]1CN2CC[C@H]1C[C@@H]2[C@H](c1ccnc2c1cc(OC)cc2)O,-0.372094354,-0.382,520.572
,C1810,XHQFUPTZQYGGHC-UHFFFAOYSA-N,CC(=CCC(c1cccc2c1cccc2)(C(=O)N)CCN(CC=C(C)C)CC=C(C)C)C,-8.935435009,7.244,432.641
,C2388,XHRJGHCQQPETRH-KQYNXXCUSA-N,CC(N1CCC(CC1)N(c1ccc(cc1)Cl)C(=O)Cc1ccccc1)C,-6.046185572,4.7264,370.916
,C5807,XHRKBDQMDPKJMB-UHFFFAOYSA-N,O=C1N=c2c(=C1Nc1ccccc1)cccc2,-2.847148805,0.5753,222.242
,C7291,XHSHZRTUPHMFMW-UHFFFAOYSA-N,OC[C@H]1O[C@H]([C@@H]([C@@H]1O)O)n1cnc2c1ncnc2Cl,-1.895092412,-0.9088,286.672
,C6695,XHVAWZZCDCWGBK-BMZZJELJSA-M,OCn1c(Cl)nc2c1c(=O)n(C)c(=O)n2C.ON=O,-2.274527319,-0.8211,291.648
,C2582,XHYFCIYCSYEDCP-UHFFFAOYSA-N,CN(CCCC1(CC(c2c1cccc2)(C)C)c1ccccc1)C.Cl,-5.690763406,5.7978,343.933
,C9157,XHZUSMBAWAVCRE-UHFFFAOYSA-N,OC[C@H]1OC([S-])[C@@H]([C@H]([C@@H]1O)O)O.[Au+],0.075928866,-2.6693,392.18
,C8426,XICNBWOUXVORMU-UHFFFAOYSA-L,CC1(C)CCO1,-0.955626256,1.1853,86.1323
,C5009,XIFFTDRFWYFAPO-UHFFFAOYSA-N,[O-]S(=O)(=O)NC1CCCCC1.CCCC[NH+]1CCCC1c1c[nH]c2c1cccc2,-3.379387945,6.0976,421.597
,C7919,XIFVTSIIYVGRHJ-UHFFFAOYSA-N,CCCCCCCC[N+](CCOCC[N+](CCCCCCCC)(C)C)(C)C.[Br-].[Br-],-1.440938509,-0.1152,546.506
,C2,XIGAUIHYSDTJHW-UHFFFAOYSA-N,Clc1c(Cl)c(Cl)c(c(c1Cl)Cl)c1c(Cl)c(Cl)cc(c1Cl)Cl,-10.41,9.2342,464.213
,C6817,XIGIHCFWLJIBPZ-UHFFFAOYSA-N,CNc1nc(nc(n1)N(C)C)N(C)C,-2.195570059,0.1183,196.253
,C260,XIHHEYPANRXLFS-UHFFFAOYSA-N,O=C(N(c1ccccc1)C)COc1nc2c(s1)cccc2,-4.8699999,3.3381,298.36
,C6446,XILORGWKMLOGKF-UHFFFAOYSA-N,CCC1(C(C)C)C(=O)NC(=S)N(C1=O)C.[Na+],-2.44934103,1.1786,251.301
,C5142,XILVEPYQJIOVNB-UHFFFAOYSA-N,OCC(COc1cc(C)ccc1C(C)C)O,-3.282643412,1.8504,224.296
,C8599,XILVKGHOXYREOY-UHFFFAOYSA-N,CCN(C(=O)CCC(=O)O)CC,-0.793752802,0.7196,173.21
,C2795,XIOUPQUYEUYPAW-UHFFFAOYSA-N,OCCOCCOC(=O)c1ccccc1Nc1cccc(c1)C(F)(F)F,-5.363306362,3.6877,369.335
,C5589,XIPRKCKRTFFPII-UHFFFAOYSA-N,COC(=O)c1c(C)ccc(c1OCC(CN1CCN(CC1)C)O)C(C)C,-2.98418904,1.7679,364.479
,C6707,XIRIZZCWCUUYLK-UHFFFAOYSA-N,O=C1NC(=S)NC(=O)C21CCCCC2,-2.269596838,1.1254,212.269
,C3802,XIROGEVVNHGHFZ-UHFFFAOYSA-N,ClCC[NH+](Cc1ccccc1)CCOc1ccc(cc1)OC.[Cl-],-4.248603907,-0.5981,356.287
,C9639,XIROXSOOOAZHLL-UHFFFAOYSA-N,CC(CSP(=O)(O)O)(N)C,0.60920561,1.2499,185.182
,C6846,XITQUSLLOSKDTB-UHFFFAOYSA-N,O=C(c1ccccc1)CCN1CCCCC1.Cl,-2.179130998,3.4852,253.768
,C7129,XIURVHNZVLADCM-IUODEOHRSA-N,CC(=O)c1ccc(c(c1O)O)O,-2.021571698,1.006,168.147
,C183,XIUVZQCJSZGEJF-UHFFFAOYSA-N,Clc1ccc(c(c1)Cl)Oc1ccc(cc1)[N+](=O)[O-],-5.46,5.2171,284.095
,C4973,XIYOPDCBBDCGOE-IWVLMIASSA-N,CC(=O)OCC1=C(C(=O)O)N2[C@H](SC1)[C@@H](C2=O)NC(=O)Cc1cccs1,-3.400061716,0.9211,396.438
,C7917,XIYPXOFSURQTTJ-NSCUHMNNSA-N,N#CC1(O)CCN(CC1)CCc1ccccc1,-1.44114863,1.51748,230.306
,C7459,XIYZPVVABJHQTA-UHFFFAOYSA-N,CN([C@@H]1C(=O)C(=C([C@@]2([C@H]1[C@@H](O)[C@@H]1C(=C)c3cccc(c3C(=C1C2=O)O)O)O)O)C(=O)N)C,-1.768006796,0.1058,442.419
,C6540,XJAVWLZVPIYJOX-VEIFNGETSA-N,CC(=O)/C=C/c1ccc2c(c1)OCO2,-2.381523884,2.0175,190.195
,C3030,XJBQYXCXGYSVBZ-UHFFFAOYSA-N,C1CCC(C1)NCC1CCC(CC1)CNC1CCCC1.Cl.Cl,-5.070130556,6.243,351.398
,C2756,XJCLWVXTCRQIDI-UHFFFAOYSA-N,Oc1c(O)ccc2c1c1cccc3c1[C@@H](C2)N(CCc1ccccc1)CC3.Cl,-5.434030117,5.2027,393.906
,C8092,XJCVRTZCHMZPBD-UHFFFAOYSA-N,OC(C(O)C)COc1ccccc1,-1.279681697,0.8071,182.216
,C597,XJDALFQCSYEWSB-UHFFFAOYSA-N,CCN(C(=S)SCC(=C)Cl)CC,-3.3900001,3.0988,223.786
,C1004,XJEARRIWKFUKML-GNGUGDOWSA-N,Nc1cccc(c1)[N+](=O)[O-],-2.1900001,2.2814,138.124
,C5040,XJEARRIWKFUKML-YYNYCHCGSA-N,COCCNc1nc2nc(nc(c2nc1C(=O)NCCOC)N)c1ccccc1,-3.356232433,2.1486,397.431
,C3560,XJGBDJOMWKAZJS-UHFFFAOYSA-N,CN(C(=O)[C@]1(CC[C@H](c2c1cccc2)[NH+](C)C)c1ccccc1)C.[Cl-],-4.475804313,-0.9557,358.905
,C3559,XJGFWWJLMVZSIG-UHFFFAOYSA-N,CN(C(=O)C1(CC[C@H](c2c1cccc2)[NH+](C)C)c1ccccc1)C.[Cl-],-4.475804313,-0.9557,358.905
,C2647,XJGONMZLEDGBRM-UHFFFAOYSA-M,OC(=O)C(Oc1ccc(cc1)C1CCCc2c1cccc2)(C)C,-5.579689876,4.3968,310.387
,C4061,XJGVXQDUIWGIRW-UHFFFAOYSA-N,Nc1c2ccccc2nc2c1cccc2,-4.067962329,3.5514,194.232
,C6252,XJHDMGJURBVLLE-YWGZHDIYSA-N,CC[N+](CCC(c1ccccc1)(C1CCCCC1)O)(CC)CC.[Cl-],-2.564895569,1.7251,353.97
,C3278,XJHWCHWUDYDOIT-JCTPKUEWSA-N,CN1CCN(CC1)C1=Nc2ccccc2Oc2c1cc(Cl)cc2,-4.763576413,3.0828,327.808
,C695,XJIPTXOGXDLVDY-UHFFFAOYSA-N,C[C@H]1C(=O)O[C@@H]2[C@@H]1CC[C@]1(C2=C(C)C(=O)C=C1)C,-3.0899999,2.4196,246.302
,C8765,XJKSERUTELYNMR-UHFFFAOYSA-N,O=[NH+]/C=c/1\n(COC(C(CC)C)C)ccn1C.[Cl-],-0.562668633,-2.8946,275.775
,C2717,XJKSTNDFUHDPQJ-UHFFFAOYSA-N,CCCCCCOc1cccc(c1)NC(=O)OCC[NH+]1CCCCC1.[Cl-],-5.481594973,1.9092,384.941
,C8177,XJLRCPYQIPAQCA-UHFFFAOYSA-N,CCCn1c(=O)n(C)c2c(c1=O)n(C)cn2,-1.208219428,-0.1563,222.244
,C78,XJLXINKUBYWONI-NNYOXOHSSA-N,c1ccc(cc1)c1ccc(cc1)c1ccccc1,-7.1100001,5.0206,230.304
,C3554,XJRXTTURVBVZRR-ZHACJKMWSA-N,O=S1(=O)c2ccccc2Oc2c1cccc2,-4.480600131,3.7059,232.255
,C5961,XJSFLOJWULLJQS-NGVXBBESSA-N,O[C@@H]1[C@H](O)[C@H](O[C@H]1[n+]1cccc(c1)C(=O)N)COP(=O)(OP(=O)(OC[C@H]1O[C@H]([C@@H]([C@@H]1O)OP(=O)(O)O)n1cnc2c1ncnc2N)O)[O-],-2.743474726,-1.1792,743.405
,C5360,XJUDHWMLJZETPI-UHFFFAOYSA-L,Clc1cccc(c1)/N=N/N(C)C,-3.128514243,2.9003,183.638
,C3706,XJUUVZIZWCSTOD-UHFFFAOYSA-L,O=CC[C@H]1C[C@@H](C)[C@@H](O)/C=C/C=C/C[C@H](OC(=O)C[C@H]([C@@H]([C@H]1O[C@@H]1O[C@H](C)[C@H]([C@@H]([C@H]1O)N(C)C)O[C@@H]1O[C@@H](C)[C@@H]([C@](C1)(C)O)OC(=O)CC(C)C)OC)OC(=O)C)C,-4.343192278,3.0134,827.995
,C9413,XKBBLYSGQCPRSO-UHFFFAOYSA-N,CC[N+](CCOCC[N+]1(CC)CCCCC1)(CC)CC.[Br-].[Br-],0.350361426,-3.1331,446.304
,C9353,XKBWIZLELLNISH-UHFFFAOYSA-N,C[N+](CCSSCC[N+](C)(C)C)(C)C.[I-].[I-],0.307804579,-4.2118,492.266
,C8391,XKCKSAJWVZAVIO-UHFFFAOYSA-N,COCCNCC(C(Oc1ccccc1)(C)C)O,-0.987066687,1.8318,253.337
,C4846,XKEFYDZQGKAQCN-UHFFFAOYSA-N,Clc1ccc2c(c1)C(=NC(C(=O)N2C)[n+]1ccc(cc1)C(=O)N)c1ccccc1.[Cl-],-3.50486666,-0.0561,441.31
,C5441,XKENOTHGZDIXRS-UHFFFAOYSA-N,Cc1ccc(cc1)C(=O)Nc1ncccc1C,-3.073610903,3.0237,226.274
,C337,XKFPYPQQHFEXRZ-UHFFFAOYSA-N,Clc1cc(Cl)cc(c1)Cl,-4.48,3.6468,181.447
,C942,XKIRHOWVQWCYBT-UHFFFAOYSA-N,CSc1ncnc2c1nccn2,-2.3599999,1.1417,178.214
,C902,XKJCHHZQLQNZHY-UHFFFAOYSA-N,Cc1onc(c1)C(=O)NNCc1ccccc1,-2.46,2.1994,231.251
,C1412,XKJMBINCVNINCA-UHFFFAOYSA-N,CCC(CC)(CC)O,-0.85000002,1.9475,116.201
,C847,XKJPMAOXOIOVIC-UHFFFAOYSA-L,O=C1NC(=O)c2c1cccc2,-2.6099999,0.899,147.131
,C570,XKKTXVIMQNCZHY-UHFFFAOYSA-N,CON(C(=O)Nc1ccc(c(c1)Cl)Cl)C,-3.52,3.0915,249.094
,C9395,XKLZIVIOZDNKEQ-FWCPINHQSA-N,C[N+](Cc1ccc(cc1)[N+](C)(C)C)(C)C.[I-].[I-],0.335209534,-3.9025,462.152
,C5325,XKLZIVIOZDNKEQ-RVUDUMFNSA-N,C1CCC(CC1)CN1CCCCC1.Cl,-3.147688309,3.7925,217.779
,C1078,XKVUYEYANWFIJX-UHFFFAOYSA-N,CSC[S@@](=O)C[C@H](NC(=O)/C=C/c1c(C)[nH]c(=O)[nH]c1=O)CO,-1.98,0.1877,361.437
,C7577,XKXHCNPAFAXVRZ-UHFFFAOYSA-N,CSCS(=O)C[C@@H](NC(=O)/C=C/c1c(C)[nH]c(=O)[nH]c1=O)CO,-1.684879248,0.1877,361.437
,C8980,XKYICAQFSCFURC-UHFFFAOYSA-N,Cc1ccn[nH]1,-0.252278465,0.7181,82.1038
,C9577,XKZLLDQKULUMEB-UHFFFAOYSA-N,NCc1ccccc1.Cl,0.546953738,2.6476,143.614
,C1234,XLAOKZDOZHZWBK-UHFFFAOYSA-N,O=COCCC(C)C,-1.52,1.8414,116.158
,C2261,XLBIBBZXLMYSFF-UHFFFAOYSA-M,O=C(C1CCC(CC1)C(=O)NCc1ccccc1Cl)NCc1ccccc1Cl.Cl.Cl,-6.3192843,7.1182,492.266
,C8398,XLDKUDAXZWHPFH-UHFFFAOYSA-N,CC(Cc1ccc2c(c1)OCO2)N.Cl,-0.981621316,2.8073,215.677
,C3636,XLDRMDBMIIRYOJ-UHFFFAOYSA-N,O=C(C1c2ccccc2Oc2c1cccc2)OCC[N+](C(C)C)(C(C)C)C.[Br-],-4.402223611,1.7348,448.393
,C9526,XLFIZJCJAJYFNV-UHFFFAOYSA-N,NCCCNCCCCNCCCN.Cl.Cl.Cl.Cl,0.458198661,5.0338,348.184
,C5710,XLFWDASMENKTKL-UHFFFAOYSA-N,O=c1ccc2c(c1)[nH]c1c(c2N)cccc1,-2.906066557,2.8447,210.231
,C5956,XLGUZTXTVKXTDR-UHFFFAOYSA-N,CCN(CCN(c1c(C)cccc1C)C=O)CC,-2.74547225,3.2439,248.364
,C9652,XLHIYUYCSMZCCC-VMPITWQZSA-N,CCO/C(=N/c1on[n+](c1)N1CCOCC1)/[O-],0.615763106,-0.5502,242.232
,C3441,XLKDJOPOOHHZAN-UHFFFAOYSA-N,O=C(N1C(C)(C)CC(=CC1(C)C)c1ccccc1)CN1CCOCC1,-4.589170434,3.0675,342.475
,C5692,XLMALTXPSGQGBX-GCJKJVERSA-N,COc1ccc(cc1)/C=C/c1cc(OC)cc(=O)o1,-2.914872843,2.8274,258.269
,C8448,XLMALTXPSGQGBX-UHFFFAOYSA-N,c1ncc2c(c1)cc[nH]2,-0.942381341,1.5629,118.136
,C3081,XLMPYCGSRHSSSX-UHFFFAOYSA-N,CCC(=O)O[C@](c1ccccc1)([C@@H](CN(C)C)C)Cc1ccccc1,-5.009674831,4.2755,339.471
,C3817,XLNFLJOWTRDNCX-JXMROGBWSA-N,CCC(=O)OC(c1ccccc1)(C(CN(C)C)C)Cc1ccccc1,-4.236346688,4.2755,339.471
,C9078,XLNZEKHULJKQBA-UHFFFAOYSA-N,CC(=O)C(S)C,-0.070296435,0.8937,104.171
,C5549,XLOMZPUITCYLMJ-MRVPVSSYSA-N,COC(=O)/C(=C/c1ccccc1)/C#N,-3.01462263,1.76658,187.195
,C274,XLOPRKKSAJMMEW-SFYZADRCSA-N,CCOP(=S)(SCSC(C)(C)C)OCC,-4.7600002,5.1569,288.431
,C583,XLOQNFNTQIRSOX-UHFFFAOYSA-N,CCC[C@H](C1(CC=C)C(=O)NC(=S)NC1=O)C,-3.46,2.1736,254.349
,C5556,XLOYQLAMNLMXCE-UHFFFAOYSA-N,CC(=C[C@@H]1[C@H](C1(C)C)C(=O)O)C,-3.01107506,2.3094,168.233
,C2888,XLPADAMZRYURRP-UHFFFAOYSA-N,CC(N(C)C)CN1c2cc(ccc2Sc2c1cccc2)C(=O)C,-5.241985722,4.507,326.456
,C7797,XLSCZCCJPDTCGU-UHFFFAOYSA-N,CCOc1ccccc1OCC(CO)O,-1.530263135,0.8173,212.242
,C9065,XLUFVYWWUQRZCL-UHFFFAOYSA-N,NCCCNC(CS)(C)C.Cl.Cl,-0.0881564,3.3284,235.218
,C7911,XLVXAUNDHWERBM-IVGWJTKZSA-N,CC1(C)OCCS1,-1.445229574,1.4859,118.197
,C8199,XLYNVJJFQHWCEU-UHFFFAOYSA-N,[O-][N+](=O)c1nccn1CC(COCC)O,-1.194873697,0.7119,215.207
,C3167,XMAYWYJOQHXEEK-OZXSUGGESA-N,OC[C@H]([C@H]([C@@H]([C@@H](NC(=O)Cc1c2cc(OC)ccc2n(c1C)C(=O)c1ccc(cc1)Cl)C=O)O)O)O,-4.905563308,0.9923,518.943
,C8995,XMBJPJHCAJZCLU-UHFFFAOYSA-N,NC(=O)c1ccc[n+](c1)Cc1ccccc1.[Cl-],-0.219602006,-1.1744,248.708
,C2106,XMFMYKMPBCMDFG-UHFFFAOYSA-N,Clc1ccc(c(c1)Cl)[C@]1(OC[C@@H](O1)COc1ccc(cc1)N1CCN(CC1)C(=O)C)Cn1cncc1,-6.787781038,4.2087,531.431
,C2550,XMGQYMWWDOXHJM-JTQLQIEISA-N,[O-]S(=O)(=O)C.OCc1ccc2c3c1sc1cc(Cl)ccc1c3nn2CC[NH+](CC)CC,-5.73596693,3.7168,484.032
,C4828,XMGWVESVLPTSKA-UHFFFAOYSA-N,O=C1C(NCCc2ccccc2)CCN1c1ccccc1.Cl,-3.521276566,3.8821,316.825
,C449,XMIIGOLPHOKFCH-UHFFFAOYSA-N,CC1=CC[C@@H](CC1)C(=C)C,-4,3.3089,136.234
,C5693,XMIVRYNNGALYOJ-UHFFFAOYSA-N,COC(=O)c1c(C)ccc(c1OCC(CN1CCOCC1)O)C(C)C,-2.914411116,1.9148,351.437
,C1269,XMLGEAMAMPIBRC-UHFFFAOYSA-N,OC(=O)CCc1ccccc1,-1.41,1.7038,150.175
,C8913,XMLNCADGRIEXPK-ZNHDNBJUSA-M,COCCC/N=C(/CSS(=O)(=O)O)\N,-0.354983975,1.6972,242.316
,C2164,XMMRNCHTDONGRJ-ZZXKWVIFSA-N,Nc1ccc(nn1)N1CCN(CC1)CCC(c1ccccc1)(c1ccccc1)c1ccccc1,-6.573646979,5.1896,449.59
,C9186,XMNLGWOTBAOGKU-UHFFFAOYSA-N,OCC(c1ccccc1)C(=O)OC1C[C@@H]2CC[C@H](C1)[N+]2(C)C.[Br-],0.114283799,-0.9617,384.308
,C6497,XMPREPGUGSKZIE-UHFFFAOYSA-N,OC(=O)/C=C/c1ccc(cc1)[N+](=O)[O-],-2.415508795,2.2158,193.156
,C2239,XMRKEVYDRNKBOR-CAKYRVLISA-N,C[NH+]1C(C)Cc2c(C1CCc1ccc(cc1)Cl)cc(c(c2)C)C.[Cl-],-6.376832111,2.6632,364.352
,C7144,XMRPGKVKISIQBV-BJMCWZGWSA-N,[O-][N+](=O)c1cn(c(n1)C)CC(=O)OCC,-2.00243706,1.186,213.191
,C2390,XMTQQYYKAHVGBJ-UHFFFAOYSA-N,COc1ccc2c(c1)[C@]13CCCC[C@H]3[C@@H](C2)N(CC1)CCc1ccc(c(c1)OC)OC,-6.038293715,4.9514,421.572
,C2895,XMUJIPOFTAHSOK-LLVKDONJSA-N,O=C1CC[C@]2([C@H](C1)CC[C@@H]1[C@@H]2CC[C@]2([C@H]1CC[C@@H]2C(=O)C)C)C,-5.235535294,4.8034,316.478
,C490,XMVQWNRDPAAMJB-QGZVFWFLSA-N,O=C(N(C)C)Nc1ccc(c(c1)Cl)Cl,-3.8,3.1599,233.095
,C736,XNCLQWUEWKYSQF-UHFFFAOYSA-N,CCCCCCCCC[C@H](O)C,-2.9400001,3.5079,172.308
,C1994,XNGIFLGASWRNHJ-UHFFFAOYSA-N,OC(=O)CCCCCCCCCCCC[C@@H]1C=CCC1,-7.179514628,5.7184,280.445
,C8072,XNGOWNGMNKDJRX-UHFFFAOYSA-N,NC(=O)CCSSSCCC(=O)N,-1.294491523,2.1674,240.367
,C1032,XNLFHCPVTULKIV-VAWYXSNFSA-N,OC(=O)c1ccccc1C(=O)O,-2.1099999,1.083,166.131
,C5849,XNLGSAWYMBYCPW-VGOFMYFVSA-N,ClCC[NH2+]CCSc1ccccc1C.[Cl-],-2.812463348,-1.1067,266.23
,C3623,XNLICIUVMPYHGG-UHFFFAOYSA-N,Cc1ccc(cc1)/C=C/C(=O)c1ccccc1,-4.412920901,3.8911,222.282
,C8591,XNMYNYSCEJBRPZ-UHFFFAOYSA-N,O/N=C/CCC(=O)c1ccc(cc1)OCC(CO)O,-0.801655653,0.8415,267.278
,C1535,XNOPRXBHLZRZKH-DSZYJQQASA-N,CCCC(=O)C,-0.19,1.3755,86.1323
,C3375,XNSAINXGIQZQOO-SRVKXCTJSA-N,CCCCc1cc2ccccc2c(n1)OCCN(C)C,-4.657840035,3.5178,272.385
,C7268,XNTLMQPDSQCANY-GDNBJRDFSA-N,CC[C@@H]([C@@H]1NC(=O)[C@H](Cc2ccc(cc2)O)NC(=O)[C@@H](N)CSSC[C@H](NC(=O)[C@@H](NC(=O)[C@@H](NC1=O)CCC(=O)N)CC(=O)N)C(=O)N1CCC[C@H]1C(=O)N[C@H](C(=O)NCC(=O)N)CC(C)C)C,-1.915686242,1.5563,1007.19
,C8336,XNUDZCVMVQKWCS-UHFFFAOYSA-N,O=C1CC[C@H](N1)C(=O)N[C@H](C(=O)N1CCC[C@H]1C(=O)N)Cc1[nH]cnc1,-1.051320345,-0.4502,362.384
,C4895,XNWKPZJCRBUXIU-UHFFFAOYSA-N,CCCN1CCN(CC1)CC(=O)N/N=C\c1ccc(o1)[N+](=O)[O-],-3.464353916,1.4554,323.348
,C5941,XOAAWQZATWQOTB-UHFFFAOYSA-N,CCCNC(=O)OCC(CCC)(CO)C,-2.757294137,2.3122,217.305
,C2031,XOACXJFHGFUHET-UHFFFAOYSA-N,CC1CCCC(C1)NCC1CCC(CC1)CNC1CCCC(C1)C.CC(=O)O.CC(=O)O,-7.063328593,6.093,454.686
,C9007,XOEUGELJHSUYGP-UHFFFAOYSA-N,NCCS(=O)(=O)O,-0.190529557,0.614,125.147
,C4452,XOEVKNFZUQEERE-UHFFFAOYSA-N,[NH-]c1ccc(cc1)S(=O)(=O)Nc1scc(n1)c1ccccc1.[Na+],-3.761502846,5.4484,353.394
,C188,XOFYZVNMUHMLCC-ZPOLXVRWSA-N,CCCCCCCCOC(=O)c1ccc(cc1)N,-5.4000001,4.3673,249.349
,C2830,XOIRGVCSIQKKPR-ZHACJKMWSA-N,O=C(c1cccc2c1oc(c1ccccc1)c(c2=O)C)OCCN1CCCCC1.Cl,-5.311221363,5.151,427.921
,C5466,XOKJUSAYZUAMGJ-WOUKDFQISA-N,OCC(=O)[C@@]1(O)CC[C@@H]2[C@]1(C)CC(=O)[C@H]1[C@H]2CCC2=CC(=O)C=C[C@]12C,-3.060254593,1.7658,358.428
,C6130,XOTGIMIAOGYFEM-UHFFFAOYSA-N,CN(/N=N/c1ccc(cc1)F)C,-2.643418908,2.386,167.184
,C6828,XOTXPRUFDURHKP-UHFFFAOYSA-N,OC[C@H]1O[C@H]([C@@H]([C@@H]1O)O)n1cc(c2c1ncnc2N)C#N,-2.190595695,-0.92212,291.263
,C4672,XOVJAYNMQDTIJD-UHFFFAOYSA-N,CCCNC(=O)OCC(c1ccccc1)(COC(=O)N)C,-3.623147512,3.267,294.346
,C9884,XOVPZXXZORJJCG-UHFFFAOYSA-N,O=NC=c1ccn(cc1)O,0.859724533,0.5109,138.124
,C6811,XOXFLDFMLLOORP-UHFFFAOYSA-M,C=CCC1(C(=O)NC(=O)NC1=O)C1CCC=C1,-2.198840666,1.5387,234.251
,C5175,XOXYHGOIRWABTC-UHFFFAOYSA-N,CCc1ccc(nc1)c1nc2c([nH]1)cccc2,-3.262488067,3.1873,223.273
,C5053,XOZLRRYPUKAKMU-UHFFFAOYSA-N,O=C(C(c1ccccc1)(c1ccccc1)O)OC1CC2CCC(C1)[N+]2(C)C.[I-],-3.344881088,0.1983,493.378
,C738,XPCKHMSVEPMTSS-UHFFFAOYSA-N,COc1cc(O)c2c(c1)oc1c(c2=O)cc(cc1)O,-2.9300001,2.366,258.226
,C7369,XPFRXWCVYUEORT-UHFFFAOYSA-N,CC(Nc1c(C)n(n(c1=O)c1ccccc1)C)C,-1.833199869,2.3777,245.32
,C4794,XPHSDHDMBQDUMB-UHFFFAOYSA-N,CCC1CC[Si](CC21C(=O)NC(=O)NC2=O)(C)C,-3.545669735,2.1347,268.384
,C8131,XPJOIOLIBUKQBN-UHFFFAOYSA-N,O=C(Cc1ccccc1)NC(=O)N,-1.244419698,1.5152,178.188
,C4434,XPJVKCRENWUEJH-UHFFFAOYSA-N,CCOC1=C(F)C(F)(F)C(C(C1(F)F)(F)F)(F)F,-3.775615739,3.7588,288.11
,C5861,XPLMIWCWJBBEFB-UHFFFAOYSA-N,ClCCN(C(=O)NC1CCSCC1)N=O,-2.804336155,2.2047,251.734
,C5663,XPOTXXGDCPYFGR-UHFFFAOYSA-N,CC(COC(=O)c1ccc(cc1)O)C,-2.938068292,2.205,194.227
,C7778,XPUWXYXPAIXPPK-UHFFFAOYSA-M,CN1C(C)C2CCC(C1C)C2,-1.544972887,2.063,153.265
,C7580,XQABLDBORQXLQH-UHFFFAOYSA-N,CCCN(CCCl)CCCl,-1.680732,2.176,184.107
,C8112,XQACWEBGSZBLRG-UHFFFAOYSA-N,CC[N+](CCC[n+]1ccc2c(c1C)[nH]c1c2cccc1)(CC)CC.[Br-].[Br-],-1.257882665,-1.8084,485.299
,C3098,XQAGDGDPAAJQSI-UHFFFAOYSA-L,OC(=O)C(=O)[O-].COc1cccc2c1n(CCC[NH+](C)C)c1c2cccc1,-4.990109175,0.1586,372.415
,C8963,XQCFHQBGMWUEMY-ZPUQHVIOSA-N,S=C=Nc1ccc(cc1)Br,-0.267618262,3.1834,214.082
,C9446,XQCGNURMLWFQJR-ZNDDOCHDSA-N,CC[N+](CCSCC[N+](CC)(CC)CC)(C)C.[Br-].[Br-],0.374370681,-3.2996,422.306
,C2696,XQCPFIQSRCZCMP-HDPAMLMOSA-N,NC(=N/N=C(/C=C/c1ccc(o1)[N+](=O)[O-])\C=C\c1ccc(o1)[N+](=O)[O-])N,-5.509762208,4.492,360.282
,C4477,XQCSYUDWFUQARH-UHFFFAOYSA-N,CO[C@H]1C[C@H](O[C@H]2CC[C@]3([C@](C2)(O)CC[C@@H]2[C@@H]3CC[C@]3([C@]2(O)CC[C@@H]3C2=CC(=O)OC2)C)C=O)O[C@@H]([C@H]1O)C,-3.744952414,2.4333,548.665
,C2302,XQDHXDORJFXNDX-UHFFFAOYSA-M,CC/C(=N\C(=O)C)/C(c1ccccc1)(c1ccccc1)C(CN(C)C)C.Cl,-6.212922206,5.3699,386.958
,C5875,XQDQRCRASHAZBA-UHFFFAOYSA-N,CCCCCCCC(NCCSS(=O)(=O)O)CC,-2.795839111,4.7228,297.478
,C9592,XQDSMZHQEGMUCW-CYBPKNTASA-N,OCC[N+](CC)(CC)CC.[I-],0.563586092,-2.1408,273.155
,C5607,XQEPSRGXVQDHMK-FJUODKGNSA-N,N#CSc1ccc(cc1[N+](=O)[O-])[N+](=O)[O-],-2.971952935,3.12258,225.181
,C1966,XQEPSRGXVQDHMK-KIUKIJHYSA-N,CN(CC/C=C/1\c2cc(Cl)ccc2Sc2c1cc(Br)cc2)C.Cl,-7.372240766,6.7525,431.217
,C2165,XQFRJNBWHJMXHO-RRKCRQDMSA-N,CN(CC/C=C/1\c2ccccc2Sc2c1cc(Br)cc2)C.Cl,-6.573234057,6.0991,396.772
,C2166,XQJMXPAEFMWDOZ-PBWFPOADSA-N,CN(CC/C=C\1/c2ccccc2Sc2c1cc(Br)cc2)C.Cl,-6.573234057,6.0991,396.772
,C6748,XQKDTERCKFKPDY-UHFFFAOYSA-N,OC[C@H]1O[C@H](C[C@@H]1O)n1cc(I)c(=O)[nH]c1=O,-2.248095943,-1.2181,354.099
,C6886,XQMDNZHAFZMBBP-UHFFFAOYSA-N,CN1[C@@H]2CC[C@H]1CC(C2)OC(=O)c1ccccc1,-2.159287593,2.4065,245.317
,C3008,XQPCYRPIZBEDDJ-UHFFFAOYSA-N,Clc1ccc(cc1)C1CCc2c(N(C1=O)CC1=NCCN1)cccc2,-5.103215009,3.2341,353.845
,C4196,XQPZMLWDJXTBRD-UHFFFAOYSA-N,CCC(C(c1ccccc1)O)[NH+](CCCC)CCCC.[Cl-],-3.96917525,-0.0123,313.906
,C7412,XQQWVNSDJQEAKL-UHFFFAOYSA-M,FCCCCCC#N,-1.810847712,2.03988,115.149
,C6011,XQQZRZQVBFHBHL-UHFFFAOYSA-N,C#CCNCC(COc1c(ccc(c1C(=O)OC)C)C(C)C)O,-2.709151682,2.2584,319.395
,C9105,XQRALZKQYRLRST-UHFFFAOYSA-N,C[n+]1ccc(cc1)c1cccs1.[I-],-0.017780356,-0.7564,303.163
,C8840,XQRUOHZMMIUQSB-UHFFFAOYSA-N,O1CCOCCOCCOCC1,-0.452664256,0.0664,176.21
,C6688,XQTMNRKZPMKUHJ-UHFFFAOYSA-N,OC(CN(C(C)C)C(C)C)COc1cccc(c1)C(=O)C.Cl,-2.280290121,3.5497,329.862
,C2469,XQUJIUXPLNHJMQ-UHFFFAOYSA-N,[O-]S(=O)(=O)C.CN1CC[NH+](CC1)C1Cc2ccccc2Sc2c1cc(Cl)cc2,-5.88176102,4.668,441.007
,C4397,XQUXKZZNEFRCAW-SFHVURJKSA-N,CCN(C(=O)c1cccc(c1O)c1ccccc1)CC,-3.806025194,3.5412,269.338
,C2906,XQXPVVBIMDBYFF-UHFFFAOYSA-N,CN1CCC2=C(C1CCc1cccc(c1)[N+](=O)[O-])CCCC2,-5.222430329,4.5632,300.395
,C139,XQYQSCYDDPMDFG-UHFFFAOYSA-N,N#C[C@@H](c1cccc(c1)Oc1ccccc1)OC(=O)C1C(C1(C)C)(C)C,-6.0300002,5.26898,349.423
,C8883,XQYZDYMELSJDRZ-UHFFFAOYSA-N,OC(=O)Cc1ccc(cc1)O,-0.399080411,1.0193,152.147
,C3973,XQZXYNRDCRIARQ-LURJTMIESA-N,Clc1ccc(cc1)C(c1ccncc1)(c1ccccc1)O,-4.12264337,4.0192,295.763
,C1683,XQZYPMVTSDWCCE-UHFFFAOYSA-N,COc1ccc(cc1OC)Cc1nccc2c1cc(OC)c(c2)OC	,-3.87 ,3.86,339.385
,C8644,XRAILAIVPUNDJC-UHFFFAOYSA-N,OCC(NC(=O)c1c(I)c(C(=O)NC(CO)CO)c(c(c1I)NC(=O)[C@@H](O)C)I)CO,-0.74434272,-0.1595,777.085