Name,Compound ID,InChIKey,SMILES,logS,logP,MW
,C8049,RHCSKNNOAZULRK-UHFFFAOYSA-N,[O-][N+](=O)c1no[n+](c1C)[O-],-1.316243478,0.8429,145.074
,C7165,RHFVHKHSFGQHJO-UHFFFAOYSA-N,COc1cc(C)nc(n1)n1nc(cc1OC)C,-1.985522146,1.2963,234.254
,C8882,RHGQOMYDGHIKFH-GNOQXXQHSA-K,NCCc1cc(OC)c(c(c1)OC)OC,-0.400126628,1.9139,211.258
,C4811,RHILVRBEZGPKBY-UHFFFAOYSA-N,O=C1NCCC2(O1)CCN(CC2)CCCC(=O)c1ccc(cc1)Cl,-3.532275579,3.5341,350.84
,C3052,RHKZVMUBMXGOLL-UHFFFAOYSA-N,CCCCCCCC/C=C\CCCCCCCC(=O)[O-].CCCCCCCC/C=C\CCCCCCCC(=O)[O-].CCCCCCCC/C=C\CCCCCCCC(=O)[O-].[Bi+3],-5.042437045,14.3214,1053.34
,C2688,RHMRYQBVNMDNNR-UHFFFAOYSA-N,OC(=O)C(c1ccc2c(c1)nc(o2)c1ccc(cc1)I)C,-5.515410161,4.2875,393.176
,C7229,RHNRLUFRIWVFOF-UHFFFAOYSA-N,CN(CCOC(=O)C(C1(O)CCCC1)c1ccccc1)C.Cl,-1.935890267,2.9821,327.846
,C4165,RHOGRSKNWDNCDN-UHFFFAOYSA-N,ClCC[NH+](CCOc1ccc2c(c1)cccc2)CC.[Cl-],-3.993484603,-0.6338,314.25
,C1935,RHPGONJTJILALS-UHFFFAOYSA-N,CCC(c1cccc2c1cccc2)(C(=O)N)CCN(CC=C(C)C)CC=C(C)C.Cl,-7.560620848,7.0997,429.038
,C8607,RHQDFWAXVIIEBN-UHFFFAOYSA-N,NCCc1cc(OC)c(c(c1)OC)OCC,-0.784067062,2.304,225.284
,C2003,RHTNTTODYGNRSP-UHFFFAOYSA-N,CC(C(c1ccccc1)(c1ccccc1)c1ccccc1)CN1CCN(CC1)c1ncccn1.COS(=O)(=O)O.COS(=O)(=O)O,-7.151200126,6.305,672.812
,C9917,RHYUFGNCUXTFTC-UHFFFAOYSA-N,OCC(F)(F)F,0.999826317,0.541,100.04
,C8811,RHZBRCQIKQUQHQ-UHFFFAOYSA-N,c1ccc(cc1)CC1=NCCN1.Cl,-0.497181428,1.7972,196.677
,C7560,RIAFEOJNYOXQED-UHFFFAOYSA-M,CCCCCC(CO)CO,-1.69816886,1.1675,146.227
,C8371,RIGBEDNANJVICG-YEUQMBKVSA-N,ClC(=O)CN1C(=O)c2c(C1=O)cccc2,-1.007072425,0.9859,223.613
,C3605,RIGBPMDIGYBTBJ-UHFFFAOYSA-N,C(=C/C=[N+]/1\CCC(CC1)c1ccccc1)C=CN1CCC(CC1)c1ccccc1.[Cl-],-4.439616443,2.4975,421.017
,C4028,RIGPVBUAGOURJC-UHFFFAOYSA-N,COc1cc(/C=C/C(=O)CCN2CCN(CC2)Cc2cccc(c2)C)cc(c1OC)OC.Cl.Cl,-4.090783965,5.2908,511.481
,C398,RIHJGBQERCBTIA-UHFFFAOYSA-N,O=C(NS(=O)(=O)c1ccc(cc1)C)NC1CCCCC1,-4.21,4.1782,296.385
,C2054,RIIKPLGIMDVDSV-UHFFFAOYSA-N,O=C(N1c2ccccc2Sc2c1nccc2)OCCOCCCN1CCCCC1.Cl,-6.987625722,5.5184,449.994
,C4528,RIJRFNRKNTXEGB-UHFFFAOYSA-M,OC(=O)C(=O)O.CCOc1c(OC)cccc1C(=O)NCCCN(CC)CC,-3.704405628,2.1021,398.451
,C8045,RIKCMEDSBFQFAL-UHFFFAOYSA-N,OCCC1C2CCN(C1CNCCN(CC)CC)CC2,-1.318952859,1.3394,283.453
,C7590,RILGWRDUQRNRJM-LBCIAOCBSA-M,CCC1(CC)C(=O)[N-]C(=O)N(C1=O)C.[Na+],-1.674439267,0.5535,220.201
,C3831,RIMDDIPKIZTBHU-KPDHXFAYSA-N,CCCCCCCCOC(=O)c1ccc(cc1)O,-4.222435519,3.9095,250.333
,C2154,RIMXLXBUOQMDHV-UHFFFAOYSA-N,CCCCC[N+]12CCC(C(C1)C=C)C[C@@H]2[C@H](c1ccnc2c1cc(OC)cc2)O.[Cl-],-6.625894228,1.841,431.011
,C5390,RINYHQOSGRLIMH-UHFFFAOYSA-N,COC/C=C/1\CN2[C@@H]3[C@@H]4[C@@H]1CC2C1(C3)C(=Nc2c1c(OC)c(OC)cc2OC)OC4,-3.107553331,2.0629,412.479
,C123,RIOXQFHNBCKOKP-UHFFFAOYSA-N,Clc1cc(ccc1Cl)c1ccccc1Cl,-6.29,5.3138,257.543
,C4652,RIQFAHOGTLRWSQ-UHFFFAOYSA-N,CC(c1ccc2c(c1)nc(o2)c1ccc(cc1)C(=O)C)C(=O)O,-3.636711208,3.8855,309.316
,C258,RISCHQYUHLQSBU-UHFFFAOYSA-N,CCCCNC(=O)n1c(NC(=O)OC)nc2c1cccc2,-4.8800001,3.0363,290.318
,C2000,RISOHYOEPYWKOB-UHFFFAOYSA-N,CC[NH+](CCOC(=O)c1c2ccccc2cc2c1cccc2)CC.[Cl-],-7.168128716,0.0785,357.874
,C2871,RIUFVBVJZNDZOJ-UHFFFAOYSA-N,CN(CC(N1c2ccccc2Sc2c1cccc2)C)C.Cl,-5.260828628,5.1064,320.88
,C6789,RIZMRRKBZQXFOY-UHFFFAOYSA-N,Cc1[nH]nc(c1Br)C,-2.221920737,1.789,175.026
,C6274,RIZUCYSQUWMQLX-UHFFFAOYSA-N,FCCCCCC#C,-2.552375394,2.1495,114.161
,C175,RIZZXCJMFIGMON-UHFFFAOYSA-N,CCOP(=S)(OCC)SCSP(=S)(OCC)OCC,-5.54,6.3065,384.476
,C6287,RJEKQCDPXXLTSK-UHFFFAOYSA-N,OC(=O)c1cccc(c1C)C,-2.540115528,2.0016,150.175
,C8872,RJFIGOFHRFQXMH-UHFFFAOYSA-N,CC(=O)OCC#C,-0.416485581,0.1827,98.0999
,C1793,RJIHKIJHSOQCSG-UHFFFAOYSA-N,Brc1ccc(nc1)OCCCCCNCCSSCCNCCCCCOc1ccc(cn1)Br.Cl.Cl,-9.34170213,8.7464,709.428
,C7180,RJKFOVLPORLFTN-LEKSSAKUSA-N,CCCCN1CCC(CC1)(O)C1CN(CCCC)CCC1=O.Cl.Cl,-1.972989691,3.7843,383.397
,C3118,RJKGJBPXVHTNJL-UHFFFAOYSA-N,Brc1ccc2c(c1)c(c[nH]2)C1CCC[NH+]1Cc1ccccc1.[Cl-],-4.963584994,2.4236,391.733
,C351,RJMIEHBSYVWVIN-UHFFFAOYSA-N,O=C1CC[C@]2(C(=C1)CC[C@@H]1[C@@H]2CC[C@]2([C@H]1CC[C@@H]2C(=O)C)C)C,-4.4299998,4.7235,314.462
,C564,RJMUSRYZPJIFPJ-UHFFFAOYSA-N,[O-][N+](=O)c1cccc2c1cccc2,-3.54,3.2712,173.168
,C1677,RJMZBTNNGWVNEW-UHFFFAOYSA-N,OC(=O)C(c1ccc(cc1)N1Cc2c(C1=O)cccc2)C	,-4.82 ,3.1001,281.306
,C289,RJNJWHFSKNJCTB-UHFFFAOYSA-N,Clc1ccc(c(c1)C(=O)Nc1ccc(cc1Cl)[N+](=O)[O-])O,-4.6999998,4.4557,327.12
,C6967,RJNVSQLNEALZLC-UHFFFAOYSA-N,OCC(COc1ccc(cc1)Cl)(O)C,-2.110471462,1.4621,216.661
,C1386,RJNYZLOAGXCCHJ-UHFFFAOYSA-N,NC(=O)NCc1ccccc1,-0.94999999,1.9461,150.178
,C7809,RJODSWMFHIEXQP-UHFFFAOYSA-N,COc1ccccc1OCC1CO1,-1.52176273,1.4728,180.2
,C8035,RJPZIQRLRMWPRF-UHFFFAOYSA-N,Cc1n(C)c(=O)n(c(=O)c1Br)C,-1.32215408,0.1549,233.063
,C3679,RJQFSZABCNPBQY-UHFFFAOYSA-N,OCCNC(=O)c1cc(I)cc(c1O)c1ccccc1,-4.365924556,2.7768,383.181
,C4617,RJQXTJLFIWVMTO-TYNCELHUSA-N,CN(CCn1c2ccccc2n(c2c(c1=O)cccc2)C)C.Cl,-3.658802577,3.419,331.84
,C4688,RJSHVMXWGMYEBO-UHFFFAOYSA-N,CCCC(COC(=O)N)(COC(=O)NCC(=C)C)C,-3.613605878,3.2816,272.341
,C5545,RJTJVVYSTUQWNI-UHFFFAOYSA-N,COc1cccc(c1C(=O)N[C@@H]1C(=O)N2[C@@H]1SC([C@@H]2C(=O)O)(C)C)OC,-3.015354972,1.2779,380.415
,C7403,RJTOSFZZYBCYTM-UHFFFAOYSA-N,CCCCCCCCNCCSS(=O)(=O)O,-1.815529392,3.9442,269.425
,C380,RJUFJBKOKNCXHH-UHFFFAOYSA-N,CCc1ccc2c(c1)cccc2,-4.29,3.4022,156.224
,C3717,RJURFGZVJUQBHK-IIXSONLDSA-N,Cc1ccc(cc1)C1(O)CC[NH+](CC1)CCCC(=O)c1ccc(cc1)F.[Cl-],-4.328369641,1.2367,391.907
,C1544,RJUUDPCLWNXKQZ-UHFFFAOYSA-N,CCC(=O)OC,-0.14,0.5694,88.1051
,C1819,RJWFCNKUCLNCTI-UHFFFAOYSA-N,O=C1N[C@H](C(C)C)C(=O)N2CCC[C@H]2C(=O)N(C)CC(=O)N([C@H](C(=O)O[C@@H]([C@@H]1NC(=O)c1c2nc3c(ccc(c3oc2c(c(=O)c1N)C)C)C(=O)N[C@H]1[C@@H](C)OC(=O)[C@H](C(C)C)N(C)C(=O)CN(C(=O)[C@H]2N(C(=O)[C@H](NC1=O)C(C)C)CCC2)C)C)C(C)C)C,-8.874521256,2.3736,1255.42
,C2527,RJYGSOJCBZUNFI-UHFFFAOYSA-N,O=C(C(c1ccccc1)c1ccccc1)OCCCN1CCCCC1C,-5.783234398,4.5641,351.482
,C4692,RKBPDPLCHXWHRQ-UHFFFAOYSA-N,COc1ccc(cc1)C1CCC2N(C1)CCCC2.Cl,-3.611758768,4.167,281.821
,C9108,RKBPFDSABQZWQQ-UHFFFAOYSA-N,NCC(Sc1ccccc1)(O)C,-0.015115744,2.1462,183.271
,C5025,RKIFMRPSYFQBJG-UHFFFAOYSA-L,C1CSC(S1)c1ccccc1,-3.367022524,3.1652,182.306
,C3654,RKISHCUVRHHCRT-UHFFFAOYSA-N,CCOC(=O)c1c(C)ccc(c1OCC(=O)OCCCN(C)C)C(C)C,-4.386760474,3.1688,365.464
,C9531,RKLLTEAEZIJBAU-UHFFFAOYSA-N,C[N+](CCC[n+]1ccccc1)(C)C.[Br-].[Br-],0.468389537,-4.9216,340.098
,C6314,RKLNONIVDFXQRX-UHFFFAOYSA-N,FC(c1ccc(c(c1)N1C(=O)C2C(C1=O)C1OC2CC1)Cl)(F)F,-2.525864667,3.0906,345.701
,C51,RKMAZEUAOKHEOX-UHFFFAOYSA-N,Clc1ccc(c(c1)Cl)c1ccc(c(c1)Cl)Cl,-7.8000002,5.9672,291.988
,C4594,RKMBPARPFMUZSG-UHFFFAOYSA-N,Fc1ccc(cc1)C(=O)CCCN1CCC(CC1)(O)c1ccc(cc1)Br,-3.669339602,4.4726,420.315
,C2774,RKMGAJGJIURJSJ-UHFFFAOYSA-N,Clc1cnc(c(c1)Cl)SCCCCCCCN1CCSC1.Cl,-5.402648486,6.1772,401.846
,C9347,RKNDYNPDCNJBBJ-UHFFFAOYSA-N,FCC(=O)NC(C(Cl)Cl)O,0.302182804,0.5851,190
,C8332,RKNGLZFRJZYNLH-UHFFFAOYSA-N,CC1(C)CCCC(N1)(C)C,-1.06046117,2.6459,141.254
,C4624,RKNSPEOBXHFNTD-RMKNXTFCSA-N,SCCNCCCCCCOc1ccc(cn1)Cl.Cl,-3.655544479,4.3865,325.298
,C4724,RKSKSWSMXZYPFW-UHFFFAOYSA-N,CCc1sc2=NC(=O)CNC(=c2c1)c1ccccc1Cl,-3.589687487,1.6342,304.795
,C4621,RKUNBYITZUJHSG-JJXSEGSLSA-N,CCC(=O)N1C2CCC1CN(C2)C/C=C/c1ccccc1,-3.65597456,2.6608,284.396
,C8330,RKUNBYITZUJHSG-PJPHBNEVSA-N,OC(=O)C(CC(=O)O)NCc1ccccc1,-1.063191359,1.095,223.225
,C1107,RKUNBYITZUJHSG-SPUOUPEWSA-N,OC[C@@H](c1ccccc1)C(=O)O[C@@H]1C[C@@H]2CC[C@H](C1)N2C,-1.91,1.8688,289.369
,C1702,RKUNBYITZUJHSG-UHFFFAOYSA-N,OCC(c1ccccc1)C(=O)O[C@@H]1C[C@@H]2CC[C@H](C1)N2C	,-2.00 ,1.8688,289.369
,C1709,RKWGIWYCVPQPMF-UHFFFAOYSA-N,c1ncc2c(n1)nccn2	,0.02 ,0.4198,132.123
,C6954,RKWPZPDLTYBKCL-RVZGXXANSA-N,OCC(c1ccccc1)C(=O)OC1CC2CCC(C1)N2C,-2.119038328,1.8688,289.369
,C714,RLATYNCITHOLTJ-UHFFFAOYSA-N,CCCNC(=O)NS(=O)(=O)c1ccc(cc1)Cl,-3.03,3.6005,276.74
,C2391,RLAWWYSOJDYHDC-BZSNNMDCSA-N,CO[C@H]1[C@H](C)O[C@H]([C@@H]([C@@H]1O)O)O[C@H]1CC[C@]2(C(=C1)CC[C@@H]1[C@@H]2CC[C@]2([C@]1(O)CC[C@@H]2c1ccc(=O)oc1)C)C,-6.03630769,3.6679,544.676
,C9763,RLBIQVVOMOPOHC-UHFFFAOYSA-N,CN(CC(c1ccc(c(c1)O)O)O)C,0.70501824,0.6928,197.231
,C3538,RLCFKYRNUBRPIK-UHFFFAOYSA-N,NCCCC[C@@H](C(=O)N1CCC[C@H]1C(=O)O)N[C@H](C(=O)O)CCc1ccccc1,-4.494042151,2.2643,405.488
,C522,RLFWWDJHLFCNIJ-UHFFFAOYSA-N,COP(=S)(Oc1ccc(cc1)[N+](=O)[O-])OC,-3.6800001,3.6647,263.207
,C2314,RLHSBVHMTZVHGJ-UHFFFAOYSA-N,CN1CCCC(C1)CN1c2ccccc2Sc2c1cccc2.Cl,-6.188043051,5.436,346.917
,C1465,RLIONZRKXHAVFB-INUFXIKQSA-N,Nc1c(C)n(n(c1=O)c1ccccc1)C,-0.62,1.6478,203.24
,C3309,RLISWLLILOTWGG-UHFFFAOYSA-N,Cc1ccc(cc1)C(c1ccccc1)OCCN[NH+]1CCCC1.[Cl-],-4.721317621,1.2484,346.894
,C200,RLLPVAHGXHCWKJ-MJGOQNOKSA-N,O=C1CC[C@]2(C(=C1)CC[C@@H]1[C@@H]2CC[C@]2([C@H]1CC[C@]2(C)OC(=O)C)C)C,-5.2800002,4.8401,344.488
,C8091,RLPGDEORIPLBNF-UHFFFAOYSA-N,OC(=O)COc1ccccc1C(=O)N,-1.279698097,0.9492,195.172
,C124,RLQPOUJATYVJJL-UHFFFAOYSA-N,ClC(=C[C@@H]1[C@H](C1(C)C)C(=O)OCc1cccc(c1)Oc1ccccc1)Cl,-6.29,6.1133,391.288
,C267,RLSSMJSEOOYNOY-UHFFFAOYSA-N,CC(C(C)C)C(C)C,-4.8000002,2.9345,114.229
,C9185,RLWXDHRFFALFFF-UHFFFAOYSA-N,OCC1CC2CCN1CC2.Cl,0.113992989,1.2029,177.672
,C1457,RLZLGGSREJEDMI-UHFFFAOYSA-N,Cc1cccc(c1)O,-0.68000001,1.7006,108.138
,C6154,RMAAHPVCLURWMW-UHFFFAOYSA-N,SCCNCCCOc1ccc(cn1)Br.Cl,-2.62389261,3.3253,327.669
,C6610,RMBFBMJGBANMMK-UHFFFAOYSA-N,CCCCCCCCCNCCSS(=O)(=O)O,-2.338525463,4.3343,283.451
,C5129,RMBRPGBOGSJHEX-UHFFFAOYSA-M,O=C(Nc1ccccc1C(=O)N(c1ccccc1)C)CN1CCOCC1,-3.290615005,2.2448,353.415
,C774,RMDLIKZXAIGBEJ-UHFFFAOYSA-N,[O-][N+](=O)c1ccc(c(c1)[N+](=O)[O-])C,-2.8199999,2.8578,182.134
,C8227,RMEDXOLNCUSCGS-UHFFFAOYSA-N,OC(c1ccccc1)C(=O)OC1CC2CCC(C1)[N+]2(C)Cc1ccccc1.[Br-],-1.152779954,0.5662,446.377
,C1967,RMFNNCGOSPBBAD-MDWZMJQESA-N,Clc1ccc2c(c1)C1(CCC(CC1)N(C)C)c1ccccc1C=C2.Cl,-7.369156695,6.4161,374.347
,C3124,RMFYWNFETXNTIQ-UHFFFAOYSA-N,Fc1ccc(cc1)C(=O)CCCN1CCC(=CC1)n1c(=O)[nH]c2c1cccc2,-4.95526812,3.6163,379.427
,C953,RMGHERXMTMUMMV-UHFFFAOYSA-N,CNC(=O)Oc1cccc(c1)/N=C/N(C)C,-2.3399999,2.0171,221.256
,C5479,RMHMFHUVIITRHF-UHFFFAOYSA-N,Clc1ccc2c(c1)C(=NC(C(=O)N2C)O)c1ccccc1F,-3.053176546,2.1119,318.73
,C1555,RMHWROMEMLMRSO-UHFFFAOYSA-N,COC(C)C,-0.059999999,1.0412,74.1216
,C3733,RMISVOPUIFJTEO-ZXZARUISSA-N,CN1CCN(CC1)CC(=O)n1c2ccccc2c(=O)[nH]c2c1nccc2,-4.311043821,1.2034,351.402
,C1930,RMIVRCBSQPCSCQ-BDANYOJNSA-N,BrCCN(c1ccc(cc1)OC(=O)c1ccccc1CC)CCBr,-7.582645751,5.0644,455.184
,C805,RMIXHJPMNBXMBU-QIIXEHPYSA-N,C[C@H]([C@@H](Cl)C)Cl,-2.7,2.241,127.012
,C1809,RMMMEPSVCACSHE-UHFFFAOYSA-N,COC(=O)[C@@]1(C)CC[C@]2([C@@H](C1)C1=CC(=O)[C@H]3[C@@]([C@@]1(CC2)C)(C)CC[C@@H]1[C@]3(C)CC[C@@H](C1(C)C)O)C,-8.94198208,6.501,484.71
,C1797,RMMXTBMQSGEXHJ-UHFFFAOYSA-N,C[C@@H]1C[C@H]2CC[C@H](O2)[C@H](C)C(=O)O[C@@H](C)C[C@@H]2CC[C@@H](O2)[C@@H](C)C(=O)O[C@@H](C[C@@H]2O[C@H]([C@@H](C(=O)O[C@H](C[C@H]3O[C@@H]([C@H](C(=O)O1)C)CC3)C)C)CC2)C,-9.24760863,6.022,736.929
,C2900,RMOUBSOVHSONPZ-UHFFFAOYSA-N,OCC(c1ccc2c(c1)ccc1c2cccc1)C,-5.227361416,4.0888,236.308
,C1463,RMQKPRRJSKFBRU-UHFFFAOYSA-N,CN(c1c(C)n(n(c1=O)c1ccccc1)C)C,-0.63,1.5504,231.294
,C1464,RMSOEGBYNWXXBG-UHFFFAOYSA-N,O=COC(C)C,-0.63,1.2037,88.1051
,C4327,RMUCZJUITONUFY-UHFFFAOYSA-N,CCOC(=O)C(c1ccccc1)(C(=O)NCCN(CC)CC)CC,-3.854005531,2.7464,334.453
,C5915,RMVOJBZIVYFSOQ-MMALYQPHSA-N,Oc1ccc2c(c1Cl)cccc2,-2.770475324,3.1988,178.615
,C8699,RMVOJBZIVYFSOQ-RFKZQXLXSA-N,NNCCc1ccccc1,-0.670277741,1.7836,136.194
,C9540,RMVRSNDYEFQCLF-UHFFFAOYSA-N,[NH3+][C@H]1CC[C@@H]1S.[Cl-],0.478236309,-3.3069,139.647
,C9539,RMWVZGDJPAKBDE-UHFFFAOYSA-N,[NH3+][C@H]1CC[C@H]1S.[Cl-],0.478236309,-3.3069,139.647
,C1027,RMXSRHKGELWALP-YLFUTEQJSA-N,Sc1ccccc1,-2.1199999,1.9753,110.177
,C7021,RMYQWYZCXZASAT-UHFFFAOYSA-N,CC(=O)Oc1cc(ccc1C(=O)O)C(F)(F)F,-2.079386054,2.3289,248.155
,C3442,RMYUDBIWUBWSPC-UHFFFAOYSA-N,OC(=O)C(=O)[O-].CCCC/C=[NH+]/CCNC(=O)c1cccc(c1OCCC)OC,-4.587972393,-0.2328,410.461
,C3006,RNAGZQQIHXIDQH-UHFFFAOYSA-N,ClCCN(c1cc(ccc1C)C(=O)OC)CCCl,-5.106647591,3.0656,290.186
,C3395,RNAICSBVACLLGM-GNAZCLTHSA-N,CCCCCCCSCCCCCN1CCSC1.Cl,-4.634119043,5.6065,326.004
,C8212,RNFLPYXRXDOZNZ-UHFFFAOYSA-N,CN1CCC(CC1)(C(=O)C)c1cccc(c1)O,-1.172035563,1.8825,233.306
,C9643,RNFMKVCEDRZYHI-UHFFFAOYSA-N,CC[C@@H]1C(=O)OC[C@@H]1Cc1cncn1C.Cl,0.611332328,1.9638,244.718
,C4432,RNFNDJAIBTYOQL-UHFFFAOYSA-N,ONC(=O)Cc1ccc(c(c1)Cl)OCCC(C)C,-3.777099316,3.2037,271.74
,C4278,RNISDHSYKZAWOK-UHFFFAOYSA-N,Cc1ccc(cc1)C(c1ccccc1C)OCC[NH+](C)C.[Cl-],-3.899672524,-0.4421,319.869
,C1710,RNKBIXXGAAQHCZ-UHFFFAOYSA-N,OC(C(Cl)(Cl)Cl)O	,1.70 ,0.6673,165.403
,C9813,RNLQIBCLLYYYFJ-UHFFFAOYSA-N,NCCc1ccc(cc1)O.Cl,0.760350223,2.3957,173.64
,C4001,RNPXCFINMKSQPQ-UHFFFAOYSA-N,CCCc1cccc(c1OCC(CO)O)Br,-4.10896923,2.1336,289.166
,C7083,RNRHMQWZFJXKLZ-XUWXXGDYSA-N,O=c1[nH]cc(cc1N)c1ccncc1,-2.047001203,1.6003,187.198
,C1715,RNVCVTLRINQCPJ-UHFFFAOYSA-N,CCCCCCCCCCCCCCCCOP(=O)(OCCCCCCCCCCCCCCCC)O,-15.20512017,12.0826,546.846
,C2319,RNVYQYLELCKWAN-UHFFFAOYSA-N,Oc1cc(C)c(cc1[C@@H]1C[C@@H]2C([C@@]1(C)CC2)(C)C)C,-6.17425481,4.9388,258.398
,C1406,RNZNYDUSDMAFDI-LURJTMIESA-N,Cc1ccccc1N,-0.85000002,2.1584,107.153
,C8758,ROAKRDRZFFSRSF-UHFFFAOYSA-N,OCC1COC(O1)(C)C,-0.570990744,0.1302,132.158
,C8678,ROASJEHPZNKHOF-UHFFFAOYSA-N,N/C(=N\C[C@@H]1CCCO1)/COS(=S)(=O)O,-0.703810822,1.8901,254.327
,C5233,ROBVIMPUHSLWNV-UHFFFAOYSA-N,Brc1ccc(nc1)OCCCCCCNCCSS(=O)(=O)O,-3.21837268,4.3806,413.351
,C1101,RODXRVNMMDRFIK-UHFFFAOYSA-N,CCCCCCOC(=O)N,-1.92,2.3623,145.2
,C7191,ROEBJVHPINPMKL-UHFFFAOYSA-N,CCC1(CCC(=O)NC1=O)c1ccc(cc1)N,-1.969818079,2.2632,232.278
,C6541,ROFVEXUMMXZLPA-UHFFFAOYSA-N,COc1cc2ccc(=O)oc2cc1O,-2.380432773,1.5072,192.168
,C3767,ROHRQKMUJHLVRA-UHFFFAOYSA-N,CCN(Cc1cc(ccc1O)Nc1ccnc2c1ccc(c2)Cl)CC.Cl.Cl,-4.274301709,6.8562,428.783
,C1260,ROLOQLFLZPBXLY-UHFFFAOYSA-N,c1ccc(nc1)c1ccccn1,-1.42,2.1436,156.184
,C3284,RONWGALEIBILOG-VCSAERELSA-N,O=C(Nc1cccc2c1cccc2)OCCCN1CCCCC1C,-4.752627556,4.6637,326.433
,C3431,ROPXFXOUUANXRR-YPKPFQOOSA-N,COC1(CCC(CC1)N1CCCCC1)c1cccc(c1)C,-4.599419468,4.2031,287.44
,C7339,ROSJKFFLIXTTAW-UHFFFAOYSA-N,OS(=O)(=O)O.C=C[C@H]1CN2CC[C@H]1C[C@@H]2[C@H](c1ccnc2c1cc(OC)cc2)O.C=C[C@H]1CN2CC[C@H]1C[C@@H]2[C@H](c1ccnc2c1cc(OC)cc2)O,-1.852084778,6.6502,746.912
,C1841,ROTHJTLQTAIBOO-TTWKNDKESA-N,CCCCC(COC(=O)/C=C\C(=O)OCC(CCCC)CC)CC,-8.463936356,5.0618,340.497
,C5166,ROUPHMNZHLBCGO-UHFFFAOYSA-N,ClCCN(c1ccccc1)CCCl,-3.268659613,2.9706,218.123
,C4439,ROXLQGHOPINWFU-UHFFFAOYSA-N,COc1cc(/C=C/C(=O)CCN2CCN(CC2)c2ccccc2)cc(c1OC)OC.Cl.O,-3.76871563,4.2476,464.982
,C6546,ROYOYTLGDLIGBX-UHFFFAOYSA-N,CN1CCCC1c1c[nH]c2c1c(Cl)ccc2,-2.375366775,3.5259,234.725
,C4808,RPBJOYICBFNIMN-RDWMNNCQSA-M,ICCn1c(C)ncc1[N+](=O)[O-],-3.536034937,2.0579,281.051
,C4460,RPBXZQUBVUVVET-UHFFFAOYSA-N,Clc1ccc2c(c1)C(=NCC(=O)N2C)c1ccccc1F,-3.756456249,2.7935,302.731
,C4678,RPDVFFALGUJAPM-UHFFFAOYSA-M,O=C1C=C[C@]2(C(=C1)CC[C@@H]1[C@]2(F)[C@@H](O)C[C@]2([C@H]1C[C@H]([C@]2(O)C(=O)COC(=O)c1cccc(c1)S(=O)(=O)[O-])C)C)C.[Na+],-3.618784385,3.7453,598.612
,C3275,RPHLQSHHTJORHI-UHFFFAOYSA-N,O=C(c1cccc(c1)C(F)(F)F)Cc1ccccc1C(=O)O,-4.764635683,3.829,308.252
,C8208,RPHZRUDLEUBFCM-UHFFFAOYSA-L,[S-]C(=S)N1CCCCC1.[Na+],-1.176714961,1.242,183.27
,C9803,RPJARFKGODFVHL-UHFFFAOYSA-N,OC1CN(C2=CC(=O)C(=O)C=C12)C,0.746722587,-0.8073,179.173
,C9194,RPLOPBHEZLFENN-HTMVYDOJSA-M,[O-]S(=O)(=O)CS(=O)(=O)[O-].[Ca+2],0.125508066,0.1959,214.231
,C6202,RPQVIDVZOLKLQP-UHFFFAOYSA-N,CCC1(c2ccccc2)C(=O)N(C)C(=O)N(C1=O)C,-2.595261029,1.2606,260.288
,C7995,RPSRVESLGPZACW-UHFFFAOYSA-N,[O-]C(=O)CCC(=O)OC[C@H]([C@@H](c1ccc(cc1)[N+](=O)[O-])O)NC(=O)C(Cl)Cl.[Na+],-1.365235392,0.9041,445.184
,C3197,RPTUSVTUFVMDQK-UHFFFAOYSA-N,CCCCCCC(=O)c1ccc(cc1)N,-4.871481962,4.0031,205.296
,C4182,RPUMZMSNLZHIGZ-UHFFFAOYSA-N,C=CCc1cc(Br)ccc1OCC(CO)O,-3.978106445,1.9096,287.15
,C8157,RPVBPDPLQFCQRB-UHFFFAOYSA-N,NNc1nncc2c1cccc2,-1.224104944,1.6887,160.176
,C27,RPVSMPDRWQVGJR-UHFFFAOYSA-N,Clc1cc(Cl)c(cc1c1ccc(c(c1Cl)Cl)Cl)Cl,-8.3199997,7.274,360.878
,C2959,RQBBJSWBKDLENV-HPJBNNNXSA-N,CCN(CCC(c1cccc2c1cccc2)(C(=O)N)C(C)C)CC,-5.15213408,4.6511,326.476
,C4984,RQHCFTORMXCNGP-UHFFFAOYSA-N,N#CC(=NNc1ccc(cc1[N+](=O)[O-])C)C#N,-3.397559333,2.31446,229.195
,C4057,RQKDNQXTAVOGPU-UHFFFAOYSA-N,COc1cc(/C=C/C(=O)CCN2CCN(CC2)c2ccc(cc2)F)cc(c1OC)OC.Cl.O,-4.069029225,4.3867,482.973
,C3161,RQLUJIORESNTSA-UHFFFAOYSA-N,CN(C(CN1c2ccccc2Sc2c1nccc2)C)C.Cl,-4.91218023,4.5014,321.868
,C5212,RQNKKIXVVHCBKY-UHFFFAOYSA-N,OCC(COc1ccc2c(c1)CCCC2)O,-3.232964851,1.2974,222.28
,C4235,RQNSIOJWOLUEDD-UHFFFAOYSA-N,CNC(CC12CC3CC(C2)CC(C1)C3)C.Cl,-3.936818437,4.3937,243.816
,C730,RQNWIZPPADIBDY-UHFFFAOYSA-N,O=C1NC(=O)NC(=O)C21CCCCCCC2,-2.98,1.7407,224.256
,C4872,RQPREKYEHBAOAR-UHFFFAOYSA-N,O=C(C(c1ccccc1)CN1CCCC1)c1cccs1.Cl,-3.482365203,4.5503,321.865
,C8929,RQROCSGRAXVVFN-UHFFFAOYSA-N,[As],-0.334154731,-0.3808,74.9216
,C7846,RQUSKNJBURBAJD-RVDMUPIBSA-N,OC(=O)CNc1ccc(cc1[N+](=O)[O-])[N+](=O)[O-],-1.495812749,2.1189,241.158
,C7512,RQVYBGPQFYCBGX-UHFFFAOYSA-N,OCCCOc1ccccc1C,-1.730724799,1.7562,166.217
,C3830,RQWQIVXLPCFXCO-OWOJBTEDSA-N,CCC(=O)N1C2CCC1CN(C2)C/C(=C/c1ccccc1)/C,-4.224422462,3.0509,298.423
,C712,RQXCLMGKHJWMOA-UHFFFAOYSA-N,CCNc1nc(NC(C)C)nc(n1)SC,-3.04,1.9916,227.33
,C8379,RQZAXGRLVPAYTJ-MPKFUAGISA-N,OCN(c1ncc(nn1)/C=C/c1ccc(o1)[N+](=O)[O-])CO,-0.997399729,0.7724,293.236
,C4216,RQZCPCLQGVDXMN-VILQZVERSA-N,OC(c1ccccc1)(c1ccccc1)CCN1CCCCC1,-3.951803175,3.7364,295.419
,C193,RRAFCDWBNXTKKO-UHFFFAOYSA-N,O=C1CC[C@]2(C(=C1)C(=C[C@@H]1[C@@H]2CC[C@]2([C@H]1CC[C@@]2(OC(=O)C)C(=O)C)C)C)C,-5.3499999,4.5753,384.508
,C9677,RRBSZTYIWIHPST-UHFFFAOYSA-N,Cn1ccn(/c/1=C\[NH+]=O)COCC=C.[Cl-],0.635111474,-4.1432,231.679
,C1215,RRCPAXJDDNWJBI-UHFFFAOYSA-N,C=CCc1ccc(c(c1)OC)O,-1.5599999,2.1293,164.201
,C8270,RRGCKMHKMCUKAH-UHFFFAOYSA-N,OCC(Cn1c(=O)c2n(C)cnc2n(c1=O)C)O,-1.11969682,-2.2131,254.243
,C6402,RRGUKTPIGVIEKM-UHFFFAOYSA-N,C=CCc1ccccc1OCC(CNC(C)C)O.Cl,-2.474261867,3.3457,285.81
,C4358,RRHGCGSSXPZSMF-UHFFFAOYSA-N,ClCCN(c1cc(ccc1C)C(=O)N1CC1)CCCl.O,-3.839456294,2.6084,319.227
,C2642,RRHGJUQNOFWUDK-UHFFFAOYSA-N,O=C1CCc2c(N1)ccc(c2)OCCCCc1nnnn1C1CCCCC1,-5.586303161,3.6027,369.461
,C4422,RRHRWCURNKQTLD-UHFFFAOYSA-M,CC[NH+](CCCC1(c2ccccc2)C(=O)Oc2c1cccc2)CC.[Cl-],-3.786059324,-0.3994,359.89
,C1060,RRIQOXRRSJKRFR-UHFFFAOYSA-M,C=CC(=C)C,-2.03,1.7485,68.117
,C9585,RRJQTGHQFYTZOW-ILWKUFEGSA-N,COC(=O)CC[N+](C)(C)C.[Br-],0.552546082,-2.7403,226.111
,C8827,RRKMWVISRMWBAL-UHFFFAOYSA-N,CCCCCCCC[N+](C)(C)C.[I-],-0.468698679,0.0571,299.235
,C5801,RRKTZKIUPZVBMF-DCOVJEKQSA-N,COc1ccc2c3c1O[C@@H]1[C@@]43CCN([C@H](C2)[C@@H]4CC=C1OC(=O)C)C,-2.849865135,2.359,341.401
,C8480,RRLUFPHCTSFKNR-DUXPYHPUSA-N,COc1cc(C=O)cc(c1O)O,-0.918195642,0.9189,168.147
,C1038,RRNIZKPFKNDSRS-UHFFFAOYSA-N,COc1cc2c(cc1OC)N1[C@H]3[C@]42CCN2[C@H]4C[C@@H]4[C@@H]3[C@H](CC1=O)OCC=C4C2,-2.0899999,2.1126,394.464
,C5185,RRNJROHIFSLGRA-JEDNCBNOSA-N,OC(=O)/C=C/c1ccc(c(c1)Cl)Cl,-3.25736854,3.0912,217.049
,C400,RROJVSOIIWHLCQ-UHFFFAOYSA-N,CC(OP(=S)(OC(C)C)SCCNS(=O)(=O)c1ccccc1)C,-4.1999998,5.8949,397.513
,C9187,RROQIUMZODEXOR-HTQZYQBOSA-N,CC(=O)O.NCCCC[C@@H](C(=O)O)N,0.116986653,1.0188,206.24
,C9800,RRTKVYSLIGQWCO-UHFFFAOYSA-N,OC1CC2CCC(C1)N2.Cl,0.74226569,1.3925,163.645
,C401,RRTPMMGPNRYJFD-UHFFFAOYSA-N,O=CN[C@@H](C(Cl)(Cl)Cl)N1CCN(CC1)[C@H](C(Cl)(Cl)Cl)NC=O,-4.1900001,3.418,434.962
,C7166,RRTVVRIFVKKTJK-UHFFFAOYSA-N,Cn1c2nncnc2c(=O)n(c1=O)C,-1.984900691,-1.5778,193.163
,C5746,RRXBGHRARYBGOA-UHFFFAOYSA-N,COc1ccc(cc1)CCCCN1CSCC1.Cl,-2.881668414,3.7641,287.849
,C5573,RRZXPUXXMBILMU-UHFFFAOYSA-N,O=C1CC(=O)N(c2c(N1)ccc(c2)Cl)c1ccccc1,-2.996552572,3.5499,286.713
,C5227,RSAZYXZUJROYKR-UHFFFAOYSA-N,N/C(=N\C1CCCCCCC1)/CSS(=O)(=O)O,-3.225063087,3.7736,280.407
,C4195,RSBGQTFIHFGTSY-UHFFFAOYSA-N,Clc1ccccc1C[NH2+]CC[NH2+]Cc1ccccc1Cl.[Cl-].[Cl-],-3.970510545,-4.1716,382.155
,C7630,RSBLYYMNHJDITE-NBYYMMLRSA-N,O=C1C=C/C(=N/c2ccc(cc2)O)/C=C1,-1.639392755,2.1598,199.205
,C5502,RSBRXBZGVHQUJK-GSVOUGTGSA-N,C#CCOC(c1ccccc1)(c1ccccc1)C(=O)OCCN(C)C.Cl,-3.037434641,3.4868,373.873
,C5286,RSBZNKFYPLBYBR-UHFFFAOYSA-N,CC(C(c1ccccc1)O)[NH+](C/C=C/c1ccccc1)C.[Cl-],-3.173852163,-0.6594,317.853
,C1554,RSCFQUYOMSFUAW-UHFFFAOYSA-N,CC[C@H]1NC(=O)NC1=O,-0.059999999,0.262,128.129
,C4351,RSCWQVUKFNSOHT-UHFFFAOYSA-N,OCC(CN(C(=O)c1c(I)c(C(=O)N(CC(CO)O)C)c(c(c1I)NC(=O)C)I)C)O,-3.842482071,0.3822,775.112
,C2318,RSDHECOYTIQWRA-UHFFFAOYSA-N,CC(N(CC(=O)c1ccc(cc1)Cl)C)CC12CC3CC(C2)CC(C1)C3.Cl,-6.183155915,6.2515,396.394