Name,Compound ID,InChIKey,SMILES,logS,logP,MW
,C9626,GWCFTYITFDWLAY-UHFFFAOYSA-N,CC(P(=O)(O)[O-])(P(=O)(O)[O-])O.[Na+].[Na+],0.602077346,-0.1158,249.992
,C7017,GWDYJKXSUSPLEA-UHFFFAOYSA-N,CCC1(CC)C(=O)NC(=NC1=O)OC(C)C,-2.080942905,0.9946,226.272
,C8603,GWEHVDNNLFDJLR-UHFFFAOYSA-N,CCN1CCCCCC1=O,-0.787206825,1.3468,141.211
,C309,GWEJBHPUPOEHFW-UHFFFAOYSA-N,O=c1nc(oc2c1cccc2)c1ccccc1,-4.6100001,2.855,223.227
,C674,GWEKFXIDRLUTTF-UHFFFAOYSA-N,O=C(Nc1ccccc1)Nc1ccccc1,-3.1500001,3.4766,212.247
,C2033,GWGLGTKSTGSWGQ-UPHRSURJSA-N,BrCCN(c1ccc(cc1)OC(=O)c1cccc(c1)C)CCBr,-7.060267847,4.8104,441.157
,C4141,GWGWLGUWXDEDGZ-UHFFFAOYSA-N,OC(CN1CCN(CC1)c1ccc(c(c1)C)C)COc1ccccc1C(O)C.Cl.Cl,-4.010022817,4.5255,457.434
,C8094,GWHJZXXIDMPWGX-UHFFFAOYSA-N,OC(=O)/C=C\C(=O)NC(=O)N,-1.279314324,-0.0867,158.112
,C7611,GWIJGCIVKLITQK-UHFFFAOYSA-N,CNC1CC(N(C1=O)c1ccccc1)C.Cl,-1.653990763,2.6577,240.729
,C623,GWJMJKOULKJMQA-UHFFFAOYSA-M,Cc1ccc(c(c1)C)C,-3.3099999,2.6118,120.192
,C8401,GWKBZIADWSOIQV-BTJKTKAUSA-N,Nc1ccc(cc1)S(=O)(=O)[N-]c1nccs1.[Na+],-0.979044336,3.7814,277.298
,C4264,GWNIMRXOQQOZJL-UHFFFAOYSA-N,[O-]S(=O)(=O)O.CC([N+](C)(C)C)CN1c2ccccc2Sc2c1cccc2,-3.910736125,4.5344,396.524
,C2456,GWOFUCIGLDBNKM-CYBMUJFWSA-N,CN1CCN(CC1)C1Cc2ccccc2Sc2c1cc(Cl)cc2.OC(=O)/C=C\C(=O)O,-5.900996916,3.9234,460.974
,C7517,GWOFUCIGLDBNKM-UHFFFAOYSA-N,CC(COc1ccc(cc1C(=O)N)Br)O,-1.726968114,2.0079,274.111
,C321,GWPGDZPXOZATKL-UHFFFAOYSA-N,OC[C@H](COC(=O)c1ccccc1Nc1ccnc2c1ccc(c2)Cl)O,-4.5700002,3.2148,372.802
,C8413,GWQSENYKCGJTRI-UHFFFAOYSA-N,OCC(COC(=O)c1ccccc1Nc1ccnc2c1ccc(c2)Cl)O,-0.969421725,3.2148,372.802
,C4472,GWQUZVAKPOUIRG-UHFFFAOYSA-N,Oc1ccc2c(c1)[nH]c1c2cccc1,-3.748401446,3.0267,183.206
,C446,GWRIEBWTOVUVEA-UHFFFAOYSA-N,Clc1ccc(cc1)I,-4.0300002,2.9446,238.453
,C2112,GWSLEGICZHIGNL-UHFFFAOYSA-M,BrCCN(c1ccc(cc1)OC(=O)c1cccc(c1)OC)CCBr,-6.778685458,4.5106,457.156
,C4357,GWSZWUDXBUODAW-UHFFFAOYSA-N,Brc1ccc2c(c1)c(CC[NH+](C)C)cs2.[Cl-],-3.839544414,-0.6452,320.676
,C4641,GWTVMUKCRYINJA-UHFFFAOYSA-N,O=C1[N-]C(=S)NC1(c1ccccc1)c1ccccc1.[Na+],-3.645967147,2.3779,290.315
,C8906,GWUSZQUVEVMBPI-UHFFFAOYSA-N,OC(C(F)(F)F)(C(F)(F)F)N1CCNCC1.O,-0.363459282,0.9072,270.173
,C3877,GWWLWDURRGNSRS-UHFFFAOYSA-N,CC(=O)Nc1nc(c(o1)c1ccccc1)c1ccccc1,-4.189257867,4.04,278.305
,C492,GWZCCUDJHOGOSO-UHFFFAOYSA-N,CN1C(=O)CN=C(c2c1ccc(c2)[N+](=O)[O-])c1ccccc1,-3.8,2.4324,295.293
,C2674,GWZPIQCXKKBYAW-UHFFFAOYSA-N,CN(CCC=C1c2ccccc2C(c2c1cccc2)(C)C)C,-5.537895086,4.7093,291.43
,C980,GXAVBFNRWXCOPY-UHFFFAOYSA-N,OC(=O)c1ccccc1c1ccccc1C(=O)O,-2.28,2.75,242.227
,C7305,GXBCCUBTQFNGFA-BJMVGYQFSA-N,CCCc1cnc(n1CCO)[N+](=O)[O-],-1.881009866,1.2593,199.207
,C8893,GXCRUTWHNMMJEK-WYUVZMMLSA-M,COc1cc(O)cc(c1O)OC,-0.382062985,1.115,170.163
,C9181,GXDALQBWZGODGZ-UHFFFAOYSA-N,NC(=S)N/N=C/c1ccccn1,0.105903163,1.3399,180.23
,C9519,GXDHCNNESPLIKD-UHFFFAOYSA-N,[O-]C(=O)C1=C(COC(=O)C)CS[C@H]2N1C(=O)[C@H]2NC(=O)CC#N.[Na+],0.442127242,-1.80412,361.306
,C1989,GXEKYRXVRROBEV-FBXFSONDSA-N,COc1ccc(cc1)CCN1CCC(CC1)Nc1nc2c(n1Cc1ccc(cc1)F)cccc2,-7.22414125,5.3622,458.57
,C3435,GXEUNRBWEAIPCN-UHFFFAOYSA-N,CCCCC(C)C,-4.596055676,2.8326,100.202
,C1525,GXFAIFRPOKBQRV-GHXCTMGLSA-N,OC(=O)[C@@H]1[C@H]2CC[C@@H]([C@@H]1C(=O)O)O2,-0.27000001,-0.0508,186.162
,C2669,GXFHMHYIPXHRDE-JTHROIFXSA-N,OC(=O)C(c1ccc(c(c1)Cl)C1CCCCC1)Cl,-5.542226964,4.7522,287.182
,C9217,GXGJIOMUZAGVEH-UHFFFAOYSA-N,NCCC[C@@H](CC(=O)N[C@H]1CNC(=O)[C@@H](NC(=O)/C(=C/NC(=O)N)/NC(=O)[C@@H](NC(=O)[C@@H](NC1=O)CO)CO)[C@H]1C[C@H](O)N=C(N1)N)N,0.163865844,-3.8914,685.69
,C1786,GXGLAIVPXZPYBU-FNORWQNLSA-N,CCCCCCCOc1ccc(c2c1cccc2)C(=N)[NH+](CCCC)CCCC.[Cl-],-9.454721532,3.1032,433.07
,C2623,GXGWQUTZOBNBNJ-UHFFFAOYSA-N,CCc1ccc(c2c(c1)c(C)cc2)C,-5.619864179,3.9706,184.277
,C3838,GXKPARDRBFURON-UHFFFAOYSA-N,CCC(=O)N1C2CCC1CN(C2)C/C=C/c1ccccc1[N+](=O)[O-],-4.218870505,3.0922,329.394
,C4610,GXLIFJYFGMHYDY-ZZXKWVIFSA-N,O=C1C(CCN1c1ccc(cc1)Cl)N1CCCCC1,-3.662072923,2.9341,278.777
,C4288,GXPIUNZCALHVBA-UHFFFAOYSA-N,C1CSC(SC1)c1ccccc1,-3.888144102,3.5553,196.332
,C6428,GXRZIMHKGDIBEW-UHFFFAOYSA-N,OC(=O)/C=C/c1ccc(cc1)Cl,-2.457368476,2.4378,182.604
,C6538,GXXXUZIRGXYDFP-UHFFFAOYSA-N,CC(=O)Nc1ccc(cc1)S(=O)(=O)Nc1noc(c1)C,-2.38392272,2.969,295.314
,C7387,GYDJEQRTZSCIOI-UHFFFAOYSA-N,C#CC1(CCCCC1)OC(=O)N,-1.825317018,2.1181,167.205
,C7852,GYESAYHWISMZOK-UHFFFAOYSA-N,OC(=O)Cc1ccc(cc1)C,-1.49077215,1.6221,150.175
,C9130,GYESKCXGLKLYHY-UHFFFAOYSA-N,NCC1CCC(CC1)C(=O)O,0.025447145,1.5364,157.21
,C879,GYFAGKUZYNFMBN-UHFFFAOYSA-N,Oc1cccc2c1cccn2,-2.54,1.9404,145.158
,C9624,GYHFUZHODSMOHU-UHFFFAOYSA-N,CC(CN1C(=O)C2C(C1=O)C1OC2CC1)O,0.600623106,-0.5325,225.241
,C7,GYIBSRBIOHMGPQ-CGTJXYLNSA-N,c1cc2ccc3c4c2c(c1)c1cccc2c1c4c(cc3)cc2,-9.0299997,6.3282,276.331
,C670,GYIKTPXZXCJXBN-UHFFFAOYSA-N,CCCCCCCCC=O,-3.1700001,2.9359,142.239
,C5042,GYMFBYTZOGMSQJ-UHFFFAOYSA-N,Oc1ccc2c(c1)[C@]13CCCC[C@H]3[C@@H](C2)N(CC1)C(=O)C,-3.355063626,2.935,285.381
,C5841,GYPZUNUCQUOPSL-UHFFFAOYSA-N,COc1cc(cc(c1OC)OC)S(=O)(=O)CCN(Cc1ccccc1)C,-2.820266711,3.6989,379.471
,C85,GYQOYYFIHYKFEO-UHFFFAOYSA-N,Cc1ccc2c(c1)cc1c(c2)cccc1,-6.96,4.3014,192.256
,C4187,GYRPICHNIDQFOD-IXGJNDBJSA-N,OC(=O)C(c1ccc2c(c1)nc(o2)c1ccc2c(c1)OCO2)C,-3.975973457,3.4116,311.289
,C4841,GYSSRZJIHXQEHQ-UHFFFAOYSA-N,O=C1CNC(c2c(N1)ccc(c2)Cl)c1ccccc1,-3.509908507,3.4379,272.73
,C322,GYWUCVKLUKFJLC-UHFFFAOYSA-N,C#C[C@@]1(O)CC[C@@H]2[C@]1(C)CC[C@H]1[C@H]2CCC2=CC(=O)CC[C@]12O,-4.5700002,2.6074,314.419
,C680,GZCRKMACGRBALK-VMPITWQZSA-N,O=C(C1=C(C)OCCS1)Nc1ccccc1,-3.1400001,2.693,235.302
,C4706,GZENKSODFLBBHQ-ILSZZQPISA-N,CCC(=O)C(c1ccccc1)(c1ccccc1)CC[NH+](C)C.[Cl-],-3.598780038,-0.5096,331.88
,C7983,GZFGOTFRPZRKDS-UHFFFAOYSA-N,O=CN(/N=C/CC(C)C)C,-1.381318224,1.7424,142.199
,C4679,GZHTYRWTDHLNPC-UHFFFAOYSA-N,O=C1CC[C@]2(C(=C1)[C@@H](C)C[C@@H]1[C@@H]2[C@@H](O)C[C@]2([C@H]1CC[C@@H]2C(=O)C)C)C,-3.618471258,3.9403,344.488
,C1356,GZIZRUUMRJJNQT-UHFFFAOYSA-N,Oc1ccc(cc1)Br,-1.09,2.1547,173.007
,C3906,GZMFYOQJALCSLS-UHFFFAOYSA-N,OC(=O)C(c1ccc2c(c1)nc(o2)c1ccc(cc1)C)C,-4.17272491,3.9913,281.306
,C5328,GZMYROYVXUXQMG-UHFFFAOYSA-L,Cc1n(C2CCCCC2)c(=O)n(c(=O)c1N1CCOCC1)C,-3.147251286,1.2622,307.388
,C6047,GZNACENTEXAZDR-UHFFFAOYSA-M,Clc1ccc(nc1)OCCCCCCNCCSS(=O)(=O)O,-2.685513391,4.2715,368.9
,C9339,GZOHDOWIEUISBL-UHFFFAOYSA-N,C[N+](CCCCc1ccc(cc1)[N+](C)(C)C)(C)C.[I-].[I-],0.297363559,-3.0798,504.232
,C6119,GZQJPGZDCLWDDG-FNORWQNLSA-N,CCCCCCCCCCCC[n+]1ccccc1.[I-],-2.650660586,1.899,375.331
,C3108,GZRNICQZQQPNQD-CNAYQSEPSA-N,O1CCN(CC1)c1nc(c(o1)c1ccccc1)c1ccccc1,-4.978383263,3.9102,306.358
,C5839,GZSGTFDLLISMMA-UHFFFAOYSA-N,CCOc1ccc(cc1C)/C=C/C(=O)NO,-2.82114859,2.3032,221.252
,C2346,GZUXJHMPEANEGY-UHFFFAOYSA-N,O[C@H]([C@H](C(=O)O)O)C(=O)O.CC(=CCN1CC[C@@]23[C@H]([C@H]1Cc1c3cc(cc1)OC(=O)c1ccccn1)CCCC2)C,-6.106911933,3.1407,566.642
,C6276,GZVVNAWGGPWOOK-UHFFFAOYSA-N,CC(=O)Nc1ccc(cc1Cl)Cl,-2.551203177,3.0248,204.053
,C1433,GZWDKGZNTUWBEC-UHFFFAOYSA-N,CBr,-0.79000002,1.0111,94.9385
,C4350,GZZZSOOGQLOEOB-UHFFFAOYSA-N,CCOC(=O)N1CC=Cc2c1cccc2,-3.842628472,2.7413,203.237
,C5516,HAAFFTHBNFBVKY-UHFFFAOYSA-N,CS(=O)(=O)c1ccc(cc1)c1nc2n(c1)cccc2.Cl,-3.030256675,4.2876,308.783
,C6478,HADKRTWCOYPCPH-UHFFFAOYSA-M,ClC(C(=O)N(c1ccc(cc1)O)C)Cl,-2.42824316,2.1587,234.079
,C881,HAEAJIXAMUMSFQ-UHFFFAOYSA-N,COc1cc(Cl)c(cc1O)Cl,-2.53,2.7076,193.027
,C9808,HAHHOMVBRQUNQK-UHFFFAOYSA-L,C[N+](c1ccccc1)(C)C.[OH-],0.754688497,1.7065,153.222
,C8844,HALWGCIWQTXDID-UHFFFAOYSA-N,OCC(CS(=O)(=O)c1ccc(cc1)C)O,-0.449499145,1.2027,230.281
,C9304,HALWUDBBYKMYPW-UHFFFAOYSA-M,CC[N+](CCCOCCC[N+](CC)(CC)C)(CC)C.[I-].[I-],0.277117745,-3.236,528.295
,C8816,HAPOJKSPCGLOOD-UHFFFAOYSA-N,CC(=C)COCC(CO)O,-0.478269514,-0.0677,146.184
,C1773,HAPOVYFOVVWLRS-UHFFFAOYSA-N,O=C1N(Cc2ccccc2)C2C(N1Cc1ccccc1)C[S+]1C2CCC1.O=C1CC2C(C1(CC2)CS(=O)(=O)[O-])(C)C,-9.791302251,5.5395,596.8
,C34,HASNHXSBVHIGQX-UHFFFAOYSA-M,c1ccc2c(c1)c1cc3ccccc3cc1C2,-8.04,4.411,216.277
,C8772,HATPKJUIWSKCJI-UHFFFAOYSA-M,CC1(CC)CC(=O)NC1=O,-0.556234825,0.778,141.168
,C5146,HAVJATCHLFRDHY-KSZYUSJVSA-N,CNC(=O)c1c(cccc1c1ccccc1)OCC(=O)[O-].[Na+],-3.280709846,1.2328,307.276
,C2142,HAWPXGHAZFHHAD-UHFFFAOYSA-N,CCCCC(C(=O)n1c2ccccc2[nH]c(=O)c2c1cccc2)C(=O)[O-].[Na+],-6.682323774,2.2415,374.366
,C4383,HAWXUXHIRZSLBQ-UHFFFAOYSA-N,COC(=O)C[C@@](C(=O)O[C@@H]1C(=C[C@]23[C@@H]1c1cc4OCOc4cc1CCN3CCC2)OC)(CCC(O)(C)C)O,-3.817101579,2.1285,531.595
,C8275,HAXBIWFMXWRORI-UHFFFAOYSA-N,ClCCN(CCCl)C,-1.114082527,1.3958,156.054
,C6295,HAZLTDXMBYOQPB-UHFFFAOYSA-N,CN1CCC2(CC1Cc1c2cccc1)C.Cl,-2.538570446,3.3345,237.768
,C20,HBCOGAOXPUSAQR-UHFFFAOYSA-N,c1ccc2c(c1)cc1c(c2)c2c3c1cccc3ccc2,-8.4899998,5.6404,252.309
,C7061,HBFZMCOXWWZMGL-UHFFFAOYSA-N,OC(C(F)(F)F)(C(F)(F)F)N1CCCCC1.O,-2.055305753,2.1591,269.185
,C4013,HBGFIKZGJDWPRO-UHFFFAOYSA-M,O=C(Nc1c(C)cccc1Cl)OC1CCN(C1)C(C)C,-4.105100674,3.6905,296.792
,C2255,HBGOLJKPSFNJSD-UHFFFAOYSA-N,CCCCCOc1ccc2c(c1)[nH]c1c2ccnc1C.Cl,-6.331752251,5.3955,304.814
,C8129,HBMINVNVQUDERA-UHFFFAOYSA-N,Clc1nc(Cl)c(c(c1Cl)[O-])Cl.[Na+],-1.24491834,3.839,254.861
,C9122,HBOMLICNUCNMMY-XLPZGREQSA-N,Oc1ccc(c(c1)S(=O)(=O)O)O.CCNCC,0.008641938,2.432,263.311
,C8899,HBRNMIYLJIXXEE-UHFFFAOYSA-N,[O-][N+](=O)c1nccn1C,-0.374100649,0.8515,127.101
,C8262,HBSCPBXJXNOCOA-UHFFFAOYSA-N,OC[C@H]1O[C@H](C[C@@H]1N=[N+]=[N-])n1cc(C)c(=O)[nH]c1=O,-1.123713531,-0.74354,267.241
,C4484,HBTVSGZSFGQRPQ-UHFFFAOYSA-N,CC(=O)O.CCCCCCCCCCCCN,-3.735710405,4.6572,245.401
,C8281,HBUNPJGMNVQSBX-UHFFFAOYSA-N,CC1NCCOC1c1ccccc1.Clc1[nH]c2c(n1)n(C)c(=O)n(c2=O)C,-1.105988114,1.6785,391.852
,C5736,HBVPIONTJSERNY-UHFFFAOYSA-N,CN1CCC(C1)OC(=O)Nc1c(C)cccc1C,-2.892595073,2.5669,248.321
,C7874,HBVYOCJBEXSCQE-UHFFFAOYSA-N,CC(=O)Nc1c2sscc2[nH]c1=O,-1.474931566,1.6341,214.265
,C6020,HBWMWQGHLIWUTR-UHFFFAOYSA-N,N/C(=N\CC1CCCCC1)/CSS(=O)(=O)O,-2.702857893,3.241,266.381
,C8613,HBWWYZMOHJIFTI-UHFFFAOYSA-N,NCC(c1ccccc1)C.Cl,-0.782902912,3.2511,171.667
,C4490,HBXNJMZWGSCKPW-UHFFFAOYSA-N,ClCC[NH+](CCOc1ccc(cc1OC)CC=C)CC.[Cl-],-3.733123231,-1.0499,334.281
,C4924,HCAUQPZEWLULFJ-UHFFFAOYSA-N,Cc1cc(OCCCCCNCCSS(=O)(=O)O)nc2c1cccc2,-3.438778474,4.6896,384.513
,C7886,HCAWPGARWVBULJ-IAGOWNOFSA-N,CCCCCCC(N)C,-1.465016711,3.0043,129.243
,C612,HCBHQDKBSKYGCK-UHFFFAOYSA-N,c1ccc2c(c1)ccc1c2cccn1,-3.3599999,3.388,179.217
,C1985,HCBIBCJNVBAKAB-UHFFFAOYSA-N,CCCCCc1cc(O)c2c(c1)OC([C@H]1[C@H]2CC(=CC1)C)(C)C,-7.241582099,5.7358,314.462
,C6835,HCCCKSXKQMGUDF-UHFFFAOYSA-N,OC(=O)c1c(C)cccc1C,-2.184624633,2.0016,150.175
,C9574,HCCFPODVEOBUMM-YOQTYQRRSA-N,CCN(CCOC(=O)c1ccc(cc1)N)CC.Cl,0.537511224,3.1506,272.771
,C5769,HCECCXWIJRUZPU-UHFFFAOYSA-N,OS(=O)(=O)SCCNCCCCCOc1nccc2c1cccc2,-2.869797096,4.3812,370.487
,C5104,HCFAJYNVAYBARA-UHFFFAOYSA-N,O=C1C[C@@H]2OCC=C3[C@H]4[C@@H]2[C@@H]2N1c1ccccc1[C@]12CCN([C@]1(C4)O)C3,-3.30931053,1.4154,350.411
,C6214,HCFSGRMEEXUOSS-JXEXPEPMSA-N,OC(CN1CCN(CC1)c1ccccc1)COc1ccc(cc1)C(=O)C,-2.588133899,2.454,354.443
,C1300,HCJMNOSIAGSZBM-UHFFFAOYSA-N,CCCC(=O)CCC,-1.3,2.1557,114.185
,C202,HCJOGZBBWGQKGC-UHFFFAOYSA-N,O=C1CC[C@]2(C(=C1)C(=C[C@@H]1[C@@H]2CC[C@]2([C@H]1CC[C@]2(C)C(=O)C)C)C)C,-5.27,5.2797,340.499
,C7879,HCKPAAMFYJPGMI-UHFFFAOYSA-N,OC(=O)c1c(C)cccc1O,-1.468778559,1.3988,152.147
,C7194,HCOHTDOXFIHFJZ-UHFFFAOYSA-N,CC1CCCc2n1c(=O)ccn2,-1.965706857,1.1406,164.204
,C5814,HCOMFAYPHBFMKU-UHFFFAOYSA-N,BrCCn1c(C)ncc1[N+](=O)[O-],-2.839114495,2.0178,234.051
,C4167,HCTBJOARGXIKTD-UHFFFAOYSA-N,Brc1ccc(nc1)OCCCCCN1CSCC1C.Cl,-3.991837396,4.5279,381.759
,C9867,HCTVWSOKIJULET-LQDWTQKMSA-M,NNC(=O)CCC(=O)NN,0.83520121,-0.0712,146.148
,C3072,HCVGDVYOISIYKY-UHFFFAOYSA-N,O=C1NC(CC2(O1)CCN(CC2)CCCC(=O)c1ccc(cc1)F)c1ccccc1.Cl,-5.019828142,5.5631,446.942
,C8605,HCWZEPKLWVAEOV-UHFFFAOYSA-N,O=C(N[C@@H]1C(=O)N2[C@@H]1SC([C@@H]2C(=O)[O-])(C)C)COc1ccccc1.[K+],-0.786593822,-0.3088,388.48
,C6447,HCYAFALTSJYZDH-UHFFFAOYSA-N,COC1=C(F)C(C(C1(F)F)(F)F)(F)F,-2.448940898,2.7334,224.076
,C83,HCYFGRCYSCXKNQ-UHFFFAOYSA-N,Clc1ccc(cc1c1cc(Cl)ccc1Cl)Cl,-7,5.9672,291.988
,C534,HCYNFJPPJJUYAN-UHFFFAOYSA-M,CNCCCN1c2ccccc2CCc2c1cccc2,-3.6600001,3.9887,266.381
,C6561,HDACQVRGBOVJII-JBDAPHQKSA-N,OC(=O)Cn1cnc2c1c(=O)n(C)c(=O)n2C,-2.366223361,-1.4817,238.2
,C3376,HDESCHQXZHMCDB-UHFFFAOYSA-N,CCC(=O)Oc1ccc(cc1)CCCC[N+]1(C)CCCCC1.[I-],-4.657571644,0.918,431.351
,C3463,HDGAKKHUALYJSA-UHFFFAOYSA-N,CCOC(=O)[C@@H](N[C@H](C(=O)N1[C@H]2CCC[C@H]2C[C@H]1C(=O)O)C)CCc1ccccc1,-4.572358917,2.712,416.511
,C5922,HDIYFZDHQUQHER-UHFFFAOYSA-N,CN1CC[NH+](CC1)CCCN1C(=O)C(C)Oc2c1cc(Cl)cc2.[Cl-],-2.766368759,-0.7496,374.305
,C2598,HDJLSECJEQSPKW-UHFFFAOYSA-N,CCC(C(c1ccccc1)(c1ccccc1)CC([NH+](C)C)C)Cl.[Cl-],-5.665743421,0.9172,366.368
,C9756,HDKXNOZGPYDIMX-UHFFFAOYSA-N,CC(NCCSS(=O)(=O)O)C,0.700529748,1.9921,199.292
,C8405,HDLBXIMVKQPNNL-UHFFFAOYSA-N,COC(=O)c1ccco1,-0.976248745,1.0662,126.11
,C4963,HDNVYHWHCVTDIV-UHFFFAOYSA-N,CN(C1CN(C(=O)C1)c1ccccc1)CCc1ccccc1,-3.40823703,3.0314,294.391
,C2512,HDPUHIPIPLGBTR-UHFFFAOYSA-N,CC[NH+](C(COC(=O)C1c2ccccc2c2c1cccc2)C)CC.[Cl-],-5.816602274,-0.3407,359.89
,C6380,HDRXZJPWHTXQRI-BHDTVMLSSA-N,OCC(C(=O)Nc1ccc(cc1)C(=O)Nc1ccn(c(=O)n1)C1CCC(C(O1)C)OC1OC(C)C(C(C1O)O)N(C)C)(N)C,-2.49044169,0.4696,618.679
,C5705,HDSDGRXOONRLIE-VGOFMYFVSA-N,CN1CCCC1c1c[nH]c2c1cc(Br)cc2,-2.908066763,3.635,279.176
,C3472,HDWIHXWEUNVBIY-AWEZNQCLSA-N,COc1ccc(cc1)[C@@H]1Sc2ccccc2N(C(=O)[C@@H]1OC(=O)C)CCN(C)C.Cl,-4.564250245,4.2355,450.979
,C5523,HDWIHXWEUNVBIY-UHFFFAOYSA-N,CC(N(C(C)C)CC(=O)N/N=C/c1ccc(o1)[N+](=O)[O-])C,-3.024613193,2.6708,296.322
,C551,HDXLZRWEZZFDKA-UHFFFAOYSA-N,O=S1(=O)N[C@@H](Cc2ccccc2)Nc2c1cc(c(c2)C(F)(F)F)S(=O)(=O)N,-3.5899999,4.9541,421.415
,C4721,HDZGCSFEDULWCS-UHFFFAOYSA-N,O=S1(=O)NC(Cc2ccccc2)Nc2c1cc(c(c2)C(F)(F)F)S(=O)(=O)N,-3.591280051,4.9541,421.415
,C3036,HDZZVAMISRMYHH-KCGFPETGSA-N,ClCC(=O)Nc1ccc(cc1C(=O)c1ccccc1)Cl,-5.067169506,3.8213,308.159
,C1665,HDZZVAMISRMYHH-UGYAYLCHSA-N,CNN,1.34,0.1707,46.0717
,C7218,HEDRZPFGACZZDS-UHFFFAOYSA-N,OC[C@H]1O[C@H]([C@@H]([C@@H]1O)O)n1ccc2c1ncnc2N,-1.948179763,-0.7938,266.253
,C1088,HEFNNWSXXWATRW-JTQLQIEISA-N,OC[C@@H]1O[C@@H]([C@H]([C@H]1O)O)n1ccc2c1ncnc2N,-1.95,-0.7938,266.253
,C1337,HEFNNWSXXWATRW-UHFFFAOYSA-N,ClC(Cl)Cl,-1.17,1.9864,119.378
,C456,HEILYJUNOUXHJQ-UHFFFAOYSA-N,CC(Cc1ccc(cc1)[C@@H](C(=O)O)C)C,-3.99,3.0732,206.281
,C1686,HEKZZKQGNORJMJ-UHFFFAOYSA-N,CC(Cc1ccc(cc1)C(C(=O)O)C)C	,-3.59 ,3.0732,206.281
,C7510,HEMJJKBWTPKOJG-UHFFFAOYSA-N,OCC(COc1ccc(cc1)C)O,-1.731676935,0.727,182.216
,C9320,HENARLBIUBUVMN-UHFFFAOYSA-N,NCC(CNCCSP(=O)(O)O)O.NCC(CNCCSP(=O)(O)O)O.O.O.O,0.288628996,-0.5675,514.491
,C3686,HEOJWSWARCJDBI-UHFFFAOYSA-N,Cc1ccc(c(c1)OCCCC(C(=O)O)(C)C)C,-4.359906616,3.5732,250.333
,C7572,HEQIUWPGQXVWSO-UHFFFAOYSA-N,SC/C(=N\C1C2CC3CC1CC(C2)C3)/N.Cl,-1.691253047,3.6004,260.827
,C5611,HESFRMMKCMMNMR-UHFFFAOYSA-N,[O-]C(=O)CCC(=O)O.[NH3+]CC(c1ccc2c(c1)nc(o2)c1ccccc1)C,-2.970981655,1.4413,370.399
,C1934,HETKPDLDBOPSJP-UHFFFAOYSA-N,Clc1ccc2c(c1)C1(CCC(CC1)N(C)C)c1ccccc1CC2.Cl,-7.567009046,6.0309,376.362
,C8677,HETTWOPRDUZXMX-UHFFFAOYSA-N,CC[NH+](CCOC(=O)c1ccc(cc1)N)CC.COCCOC(CNC(=O)c1ccccc1OCC(=O)[O-])C[Hg].O,-0.707710938,0.7999,765.238
,C8550,HEUUPESYFVKOLK-UHFFFAOYSA-N,NCCS/C(=N\CC)/N.Br.Br,-0.846595745,3.3297,309.066
,C2034,HEVSQLIUCMHBPN-UHFFFAOYSA-N,BrCCN(c1ccc(cc1)OC(=O)c1ccc(cc1)C)CCBr,-7.060267847,4.8104,441.157
,C6146,HEXPBLMJYQVQNU-UHFFFAOYSA-N,COCN1C(=O)N(C)C(=O)C(C1=O)(CC)c1ccccc1,-2.629728347,1.2347,290.314
,C4240,HEZNVIYQEUHLNI-UHFFFAOYSA-N,NCCc1c(C)n(c2c1cc(OC)cc2)Cc1ccccc1.Cl,-3.933051697,5.0101,330.852
,C5902,HFACYLZERDEVSX-UHFFFAOYSA-N,CCCc1cccc(c1)OCC(CO)O,-2.775008785,1.3711,210.27
,C1042,HFBWPRKWDIRYNX-UHFFFAOYSA-N,CCSCc1ccccc1OC(=O)NC,-2.0899999,3.0488,225.307
,C806,HFFGOURGAIOQBU-FOWHCLFSSA-N,Nc1ccc(cc1)c1ccc(cc1)N,-2.7,3.6804,184.237
,C442,HFFLGKNGCAIQMO-UHFFFAOYSA-N,CCNc1nc(Cl)nc(n1)N(CC)CC,-4.0599999,1.876,229.71
,C4515,HFHILYKHJBJVOM-UHFFFAOYSA-N,C#C[C@]1(O)CC[C@@H]2[C@]1(C)CC[C@H]1[C@H]2CCC2=CC(=O)CC[C@H]12.C#C[C@]1(O)CC[C@@H]2[C@]1(C)CC[C@H]1[C@H]2CCc2c1ccc(c2)OC,-3.712637562,7.4081,608.849
,C8686,HFHZKZSRXITVMK-QGZVFWFLSA-N,O=CC(Cl)(Cl)Cl,-0.691314351,1.5555,147.388
,C6443,HFHZKZSRXITVMK-UHFFFAOYSA-N,[O-]S(=O)(=O)C.[NH3+]C1=Nc2ccc(cc2N(C(=O)C1)c1ccccc1)[N+](=O)[O-],-2.450698692,2.2011,392.386
,C511,HFJKKNWEJFPBRG-UHFFFAOYSA-N,CCCC[C@@H]1C(=O)N(N(C1=O)c1ccc(cc1)O)c1ccccc1,-3.73,3.6234,324.374
,C4491,HFPMXDMZJUJZBX-AWEZNQCLSA-N,CCCCC1C(=O)N(N(C1=O)c1ccc(cc1)O)c1ccccc1,-3.732902819,3.6234,324.374
,C3780,HFPQJHKCHYRJOJ-UHFFFAOYSA-N,OCCN1CCN(CC1)CC(COc1c(ccc(c1C(=O)OC(C)C)C)C(C)C)O,-4.264166725,1.909,422.558
,C7497,HFPZCAJZSCWRBC-UHFFFAOYSA-N,COc1c(OC)cc2c(c1OC)c1ccc(c(=O)cc1[C@H](CC2)N)OC,-1.73731856,3.3945,357.4
,C5216,HFRSCQWPRWHTJR-UHFFFAOYSA-N,CCOC(=O)c1c(C)ccc(c1OCC(CNCC#C)O)C(C)C,-3.230746009,2.6485,333.422
,C501,HFSKZVIZCZVKLT-UHFFFAOYSA-N,Cc1ccc(cc1)C(C)C,-3.77,3.1184,134.218
,C7592,HFVNWDWLWUCIHC-GUPDPFMOSA-N,OCC(CC(C)C)(COC(=O)N)C,-1.672821309,1.8267,189.252
,C3389,HFXKQSZZZPGLKQ-UHFFFAOYSA-N,Cc1ccc(c(c1)C(c1ccccc1)(C(=O)OCCCN1CCCC1)O)C.Cl,-4.640652405,4.3083,403.942
,C1782,HFYAEUXHCMTPOL-UHFFFAOYSA-N,ClCCN(c1ccc(cc1)CCCC(=O)OCC(=O)[C@@]1(O)CC[C@@H]2[C@]1(C)C[C@H](O)[C@H]1[C@H]2CCC2=CC(=O)C=C[C@]12C)CCCl,-9.468243915,5.4154,646.641
,C7433,HFZWIOMMCVHMSX-UHFFFAOYSA-N,CNC(CC1CCCC1)C,-1.791316953,2.5655,141.254
,C8626,HFZWRUODUSTPEG-UHFFFAOYSA-N,CC(C=C)(CC)O,-0.767702541,1.3334,100.159
,C6709,HGBLNBBNRORJKI-WCABBAIRSA-N,CC(Nc1ccccc1C(=O)N)C,-2.269355566,2.3791,178.231
,C1217,HGBOYTHUEUWSSQ-UHFFFAOYSA-N,Clc1ccc(c(c1)Cl)O,-1.55,2.699,163.001
,C5857,HGBYUSPXUFKKJJ-UHFFFAOYSA-N,OC(=O)[C@@H]1N2C(=O)[C@H]([C@H]2SC1(C)C)NC(=O)C1(N)CCCCC1,-2.808365663,1.3088,341.426
,C1411,HGCIXCUEYOPUTN-UHFFFAOYSA-N,CCCCC=O,-0.85000002,1.3755,86.1323
,C4589,HGHUDOBKZDREKS-UHFFFAOYSA-N,Clc1cc(OCCCCCNCCSS(=O)(=O)O)nc2c1cccc2,-3.670859787,5.0346,404.932
,C853,HGINCPLSRVDWNT-UHFFFAOYSA-N,C1CCC=CC1,-2.5899999,2.1166,82.1436
,C2286,HGLKQTLPFOLZJL-ISLYRVAYSA-N,CCC1(CC)OC(c2c1cccc2)(CCCN(C)C)c1ccccc1C.Cl,-6.260443168,6.4279,387.986
,C1612,HGRRBNZVDIYTAA-UHFFFAOYSA-N,C=CC=O,0.56999999,0.3713,56.0633
,C3478,HGUGVPVTKBLXPA-UHFFFAOYSA-N,N#Cc1ccc(cc1)/N=N/N(Cc1ccccc1)C,-4.55349557,3.68898,250.298
,C6409,HGWIZOCGEBLKOS-UHFFFAOYSA-N,CC(Cc1c(C)cc(cc1C)C)N.Cl,-2.468967451,4.0038,213.747
,C3023,HHFOOWPWAXNJNY-UHFFFAOYSA-N,CC(N(C(C)C)CCCN1CCCCc2c1cccc2)C,-5.072724378,4.4032,288.471
,C4475,HHHDJHHNEURCNV-UHFFFAOYSA-N,N/C(=N\CCCC1CCCCC1)/CSS(=O)(=O)O,-3.746345201,4.0212,294.434
,C6310,HHJIUUAMYGBVSD-YTFFSALGSA-N,OCC1COC(O1)(C(C)C)C(C)C,-2.531264438,1.4024,188.264
,C7723,HHJOQUFREITNNC-UHFFFAOYSA-N,Clc1ccc(cc1)S(=O)(=O)N,-1.581152348,2.7685,191.635
,C2868,HHLXJTDUHFBYAU-UHFFFAOYSA-N,CCCCC(=O)OCC(=O)[C@H]1[C@H](C)C[C@@H]2[C@]1(C)C[C@H](O)[C@]1([C@H]2C[C@@H](C2=CC(=O)C=C[C@]12C)F)F,-5.264978475,4.4699,478.569
,C2694,HHOSMYBYIHNXNO-UHFFFAOYSA-N,COc1ccc(cc1)CN1CCc2c(C1)cccc2NC(=O)c1cc(OC)c(c(c1)OC)OC.Cl,-5.510583306,5.3445,498.998
,C1002,HHQKNFDAEDTRJK-LIOWZGMGSA-N,CCC1(C(C)C)C(=O)NC(=O)NC1=O,-2.21,1.0624,198.219
,C234,HHRZAEJMHSGZNP-UHFFFAOYSA-N,CC(CCC(C)(C)C)C,-5.0500002,3.4687,128.255
,C1836,HHUZGDMRRLQZIQ-PXWUZWBYSA-N,CCC(=O)[C@H]([C@H]([C@@H](C[C@H]([C@H]1OC(=O)C[C@@]2(O)CC=C([C@H](O2)/C(=C/CCC[C@H](/C=C/[C@@H](C[C@H]1C)C)O[C@@H]1O[C@H](C)[C@H]([C@@H](C1)OC(=O)N)O)/C)C)C)C)O)C,-8.526746539,6.7444,749.971
,C8224,HHVAAYJHSMKDFD-UHFFFAOYSA-N,NNC(c1ccccc1)C,-1.15507783,2.3021,136.194
,C4065,HHVSGZJTRORQKO-RRAKKABASA-M,O[C@@H]1CC[C@]2([C@@H](C1)[C@@H](O)C[C@@H]1[C@@H]2CC[C@]2([C@H]1CC[C@@H]2C(=O)C)C)C,-4.066514225,3.566,334.493
,C5191,HHWGZLZNWUKGCM-UHFFFAOYSA-L,CN(CC=C(c1ccccc1)c1ccc(cc1)F)C.Cl,-3.252888768,4.621,291.791
,C1940,HHWIYDYWDGAKSP-UHFFFAOYSA-N,CCCCCC[N+]12CCC(C(C1)C=C)C[C@@H]2[C@H](c1ccnc2c1cc(OC)cc2)O.[Br-],-7.546736113,2.2311,489.488
,C7725,HHXKJHBLIWETHV-UHFFFAOYSA-N,C[N+]1(CCOCC[N+]2(C)CCOCC2)CCOCC1.[I-].[I-],-1.579795099,-6.1178,528.209
,C7051,HHZQLQREDATOBM-CODXZCKSSA-M,NC(=O)OCC(C(C)(C)C)(COC(=O)N)C,-2.058515779,2.63,232.277
,C3766,HICFFJZGXWEIHN-UHFFFAOYSA-N,CCC(=O)c1ccc(cc1)OCC(OC(=O)C)CN1CCN(CC1)c1ccccc1,-4.27487149,3.4149,410.506
,C8098,HIHJBUYHDXQAJN-UHFFFAOYSA-N,[O-]C(=O)CCC(=O)OCC(=O)[C@@]1(O)CC[C@@H]2[C@]1(C)C[C@H](O)[C@H]1[C@H]2CCC2=CC(=O)CC[C@]12C.[Na+],-1.272012841,0.8626,484.514